file 4398448 1767629715                                         
version 3
run Lognormal-49-20260105-17:15:15-28123
attr configname Lognormal
attr datetime 20260105-17:15:15
attr datetimef 20260105-171515
attr experiment Lognormal
attr inifile omnetpp.ini
attr iterationvars "$N=75, $p=0.9"
attr iterationvarsd N=75/p=0.9
attr iterationvarsf N=75,p=0.9-
attr measurement "$N=75, $p=0.9"
attr network progetto.DatabaseNetwork
attr processid 28123
attr repetition 4
attr replication #4
attr resultdir results
attr runnumber 49
attr seedset 4
itervar N 75
itervar p 0.9
config description "Lognormal distribution (hotspots) - varia N e p"
config *.user[*].tableDistribution "\"lognormal\""
config *.user[*].lognormalM 1.5
config *.user[*].lognormalS 1.0
config *.numUsers 75
config *.user[*].readProbability 0.9
config network progetto.DatabaseNetwork
config sim-time-limit 10000s
config cpu-time-limit 3600s
config repeat 5
config seed-set 4
config output-vector-file "results/Lognormal-$N=75, $p=0.9-4.vec"
config output-scalar-file "results/Lognormal-$N=75, $p=0.9-4.sca"
config result-dir results
config **.vector-recording true
config **.scalar-recording true
config *.numTables 20
config *.user[*].lambda 0.05
config *.user[*].serviceTime 0.1s

vector 0 DatabaseNetwork.user[0] AccessInterval ETV
vector 1 DatabaseNetwork.user[1] AccessInterval ETV
vector 2 DatabaseNetwork.user[2] AccessInterval ETV
vector 3 DatabaseNetwork.user[3] AccessInterval ETV
vector 4 DatabaseNetwork.user[4] AccessInterval ETV
vector 5 DatabaseNetwork.user[5] AccessInterval ETV
vector 6 DatabaseNetwork.user[6] AccessInterval ETV
vector 7 DatabaseNetwork.user[7] AccessInterval ETV
vector 8 DatabaseNetwork.user[8] AccessInterval ETV
vector 9 DatabaseNetwork.user[9] AccessInterval ETV
vector 10 DatabaseNetwork.user[10] AccessInterval ETV
vector 11 DatabaseNetwork.user[11] AccessInterval ETV
vector 12 DatabaseNetwork.user[12] AccessInterval ETV
vector 13 DatabaseNetwork.user[13] AccessInterval ETV
vector 14 DatabaseNetwork.user[14] AccessInterval ETV
vector 15 DatabaseNetwork.user[15] AccessInterval ETV
vector 16 DatabaseNetwork.user[16] AccessInterval ETV
vector 17 DatabaseNetwork.user[17] AccessInterval ETV
vector 18 DatabaseNetwork.user[18] AccessInterval ETV
vector 19 DatabaseNetwork.user[19] AccessInterval ETV
vector 20 DatabaseNetwork.user[20] AccessInterval ETV
vector 21 DatabaseNetwork.user[21] AccessInterval ETV
vector 22 DatabaseNetwork.user[22] AccessInterval ETV
vector 23 DatabaseNetwork.user[23] AccessInterval ETV
vector 24 DatabaseNetwork.user[24] AccessInterval ETV
vector 25 DatabaseNetwork.user[25] AccessInterval ETV
vector 26 DatabaseNetwork.user[26] AccessInterval ETV
vector 27 DatabaseNetwork.user[27] AccessInterval ETV
vector 28 DatabaseNetwork.user[28] AccessInterval ETV
vector 29 DatabaseNetwork.user[29] AccessInterval ETV
vector 30 DatabaseNetwork.user[30] AccessInterval ETV
vector 31 DatabaseNetwork.user[31] AccessInterval ETV
vector 32 DatabaseNetwork.user[32] AccessInterval ETV
vector 33 DatabaseNetwork.user[33] AccessInterval ETV
vector 34 DatabaseNetwork.user[34] AccessInterval ETV
vector 35 DatabaseNetwork.user[35] AccessInterval ETV
vector 36 DatabaseNetwork.user[36] AccessInterval ETV
vector 37 DatabaseNetwork.user[37] AccessInterval ETV
vector 38 DatabaseNetwork.user[38] AccessInterval ETV
vector 39 DatabaseNetwork.user[39] AccessInterval ETV
vector 40 DatabaseNetwork.user[40] AccessInterval ETV
vector 41 DatabaseNetwork.user[41] AccessInterval ETV
vector 42 DatabaseNetwork.user[42] AccessInterval ETV
vector 43 DatabaseNetwork.user[43] AccessInterval ETV
vector 44 DatabaseNetwork.user[44] AccessInterval ETV
vector 45 DatabaseNetwork.user[45] AccessInterval ETV
vector 46 DatabaseNetwork.user[46] AccessInterval ETV
vector 47 DatabaseNetwork.user[47] AccessInterval ETV
vector 48 DatabaseNetwork.user[48] AccessInterval ETV
vector 49 DatabaseNetwork.user[49] AccessInterval ETV
vector 50 DatabaseNetwork.user[50] AccessInterval ETV
vector 51 DatabaseNetwork.user[51] AccessInterval ETV
vector 52 DatabaseNetwork.user[52] AccessInterval ETV
vector 53 DatabaseNetwork.user[53] AccessInterval ETV
vector 54 DatabaseNetwork.user[54] AccessInterval ETV
vector 55 DatabaseNetwork.user[55] AccessInterval ETV
vector 56 DatabaseNetwork.user[56] AccessInterval ETV
vector 57 DatabaseNetwork.user[57] AccessInterval ETV
vector 58 DatabaseNetwork.user[58] AccessInterval ETV
vector 59 DatabaseNetwork.user[59] AccessInterval ETV
vector 60 DatabaseNetwork.user[60] AccessInterval ETV
vector 61 DatabaseNetwork.user[61] AccessInterval ETV
vector 62 DatabaseNetwork.user[62] AccessInterval ETV
vector 63 DatabaseNetwork.user[63] AccessInterval ETV
vector 64 DatabaseNetwork.user[64] AccessInterval ETV
vector 65 DatabaseNetwork.user[65] AccessInterval ETV
vector 66 DatabaseNetwork.user[66] AccessInterval ETV
vector 67 DatabaseNetwork.user[67] AccessInterval ETV
vector 68 DatabaseNetwork.user[68] AccessInterval ETV
vector 69 DatabaseNetwork.user[69] AccessInterval ETV
vector 70 DatabaseNetwork.user[70] AccessInterval ETV
vector 71 DatabaseNetwork.user[71] AccessInterval ETV
vector 72 DatabaseNetwork.user[72] AccessInterval ETV
vector 73 DatabaseNetwork.user[73] AccessInterval ETV
vector 74 DatabaseNetwork.user[74] AccessInterval ETV
vector 75 DatabaseNetwork.user[21] ReadAccesses ETV
vector 76 DatabaseNetwork.user[14] ReadAccesses ETV
vector 77 DatabaseNetwork.user[32] ReadAccesses ETV
vector 78 DatabaseNetwork.user[21] WaitTime ETV
vector 79 DatabaseNetwork.user[14] WaitTime ETV
vector 80 DatabaseNetwork.user[32] WaitTime ETV
vector 81 DatabaseNetwork.user[41] ReadAccesses ETV
vector 82 DatabaseNetwork.user[41] WaitTime ETV
vector 83 DatabaseNetwork.user[67] ReadAccesses ETV
vector 84 DatabaseNetwork.user[43] ReadAccesses ETV
vector 85 DatabaseNetwork.user[67] WaitTime ETV
vector 86 DatabaseNetwork.user[36] WriteAccesses ETV
vector 87 DatabaseNetwork.user[43] WaitTime ETV
vector 88 DatabaseNetwork.user[36] WaitTime ETV
vector 89 DatabaseNetwork.user[51] ReadAccesses ETV
vector 90 DatabaseNetwork.user[51] WaitTime ETV
vector 91 DatabaseNetwork.user[50] ReadAccesses ETV
vector 92 DatabaseNetwork.user[50] WaitTime ETV
vector 93 DatabaseNetwork.user[66] WriteAccesses ETV
vector 94 DatabaseNetwork.user[66] WaitTime ETV
vector 95 DatabaseNetwork.user[11] ReadAccesses ETV
vector 96 DatabaseNetwork.user[11] WaitTime ETV
vector 97 DatabaseNetwork.user[68] ReadAccesses ETV
vector 98 DatabaseNetwork.user[68] WaitTime ETV
vector 99 DatabaseNetwork.user[28] ReadAccesses ETV
vector 100 DatabaseNetwork.user[54] ReadAccesses ETV
vector 101 DatabaseNetwork.user[28] WaitTime ETV
vector 102 DatabaseNetwork.user[54] WaitTime ETV
vector 103 DatabaseNetwork.user[3] ReadAccesses ETV
vector 104 DatabaseNetwork.user[48] ReadAccesses ETV
vector 105 DatabaseNetwork.user[53] ReadAccesses ETV
vector 106 DatabaseNetwork.user[3] WaitTime ETV
vector 107 DatabaseNetwork.user[48] WaitTime ETV
vector 108 DatabaseNetwork.user[53] WaitTime ETV
vector 109 DatabaseNetwork.user[73] ReadAccesses ETV
vector 110 DatabaseNetwork.user[73] WaitTime ETV
vector 111 DatabaseNetwork.user[32] WriteAccesses ETV
vector 112 DatabaseNetwork.user[22] ReadAccesses ETV
vector 113 DatabaseNetwork.user[22] WaitTime ETV
vector 114 DatabaseNetwork.user[71] ReadAccesses ETV
vector 115 DatabaseNetwork.user[71] WaitTime ETV
vector 116 DatabaseNetwork.user[10] ReadAccesses ETV
vector 117 DatabaseNetwork.user[10] WaitTime ETV
vector 118 DatabaseNetwork.user[13] ReadAccesses ETV
vector 119 DatabaseNetwork.user[13] WaitTime ETV
vector 120 DatabaseNetwork.user[69] ReadAccesses ETV
vector 121 DatabaseNetwork.user[69] WaitTime ETV
vector 122 DatabaseNetwork.user[16] WriteAccesses ETV
vector 123 DatabaseNetwork.user[16] WaitTime ETV
vector 124 DatabaseNetwork.user[65] ReadAccesses ETV
vector 125 DatabaseNetwork.user[65] WaitTime ETV
vector 126 DatabaseNetwork.user[35] ReadAccesses ETV
vector 127 DatabaseNetwork.user[35] WaitTime ETV
vector 128 DatabaseNetwork.user[25] ReadAccesses ETV
vector 129 DatabaseNetwork.user[25] WaitTime ETV
vector 130 DatabaseNetwork.user[48] WriteAccesses ETV
vector 131 DatabaseNetwork.user[34] ReadAccesses ETV
vector 132 DatabaseNetwork.user[34] WaitTime ETV
vector 133 DatabaseNetwork.user[36] ReadAccesses ETV
vector 134 DatabaseNetwork.user[29] ReadAccesses ETV
vector 135 DatabaseNetwork.user[29] WaitTime ETV
vector 136 DatabaseNetwork.user[58] WriteAccesses ETV
vector 137 DatabaseNetwork.user[58] WaitTime ETV
vector 138 DatabaseNetwork.user[18] ReadAccesses ETV
vector 139 DatabaseNetwork.user[40] ReadAccesses ETV
vector 140 DatabaseNetwork.user[18] WaitTime ETV
vector 141 DatabaseNetwork.user[40] WaitTime ETV
vector 142 DatabaseNetwork.user[49] ReadAccesses ETV
vector 143 DatabaseNetwork.user[49] WaitTime ETV
vector 144 DatabaseNetwork.user[47] ReadAccesses ETV
vector 145 DatabaseNetwork.user[47] WaitTime ETV
vector 146 DatabaseNetwork.user[49] WriteAccesses ETV
vector 147 DatabaseNetwork.user[66] ReadAccesses ETV
vector 148 DatabaseNetwork.user[41] WriteAccesses ETV
vector 149 DatabaseNetwork.user[64] ReadAccesses ETV
vector 150 DatabaseNetwork.user[64] WaitTime ETV
vector 151 DatabaseNetwork.user[72] ReadAccesses ETV
vector 152 DatabaseNetwork.user[72] WaitTime ETV
vector 153 DatabaseNetwork.user[60] ReadAccesses ETV
vector 154 DatabaseNetwork.user[60] WaitTime ETV
vector 155 DatabaseNetwork.user[70] ReadAccesses ETV
vector 156 DatabaseNetwork.user[2] ReadAccesses ETV
vector 157 DatabaseNetwork.user[70] WaitTime ETV
vector 158 DatabaseNetwork.user[2] WaitTime ETV
vector 159 DatabaseNetwork.user[23] ReadAccesses ETV
vector 160 DatabaseNetwork.user[23] WaitTime ETV
vector 161 DatabaseNetwork.user[30] ReadAccesses ETV
vector 162 DatabaseNetwork.user[9] ReadAccesses ETV
vector 163 DatabaseNetwork.user[30] WaitTime ETV
vector 164 DatabaseNetwork.user[9] WaitTime ETV
vector 165 DatabaseNetwork.user[52] ReadAccesses ETV
vector 166 DatabaseNetwork.user[52] WaitTime ETV
vector 167 DatabaseNetwork.user[27] ReadAccesses ETV
vector 168 DatabaseNetwork.user[27] WaitTime ETV
vector 169 DatabaseNetwork.user[7] ReadAccesses ETV
vector 170 DatabaseNetwork.user[7] WaitTime ETV
vector 171 DatabaseNetwork.user[33] ReadAccesses ETV
vector 172 DatabaseNetwork.user[33] WaitTime ETV
vector 173 DatabaseNetwork.user[19] ReadAccesses ETV
vector 174 DatabaseNetwork.user[19] WaitTime ETV
vector 175 DatabaseNetwork.user[74] ReadAccesses ETV
vector 176 DatabaseNetwork.user[74] WaitTime ETV
vector 177 DatabaseNetwork.user[37] WriteAccesses ETV
vector 178 DatabaseNetwork.user[37] WaitTime ETV
vector 179 DatabaseNetwork.user[8] ReadAccesses ETV
vector 180 DatabaseNetwork.user[15] ReadAccesses ETV
vector 181 DatabaseNetwork.user[8] WaitTime ETV
vector 182 DatabaseNetwork.user[15] WaitTime ETV
vector 183 DatabaseNetwork.user[6] ReadAccesses ETV
vector 184 DatabaseNetwork.user[6] WaitTime ETV
vector 185 DatabaseNetwork.user[56] WriteAccesses ETV
vector 186 DatabaseNetwork.user[56] WaitTime ETV
vector 187 DatabaseNetwork.user[37] ReadAccesses ETV
vector 188 DatabaseNetwork.user[20] ReadAccesses ETV
vector 189 DatabaseNetwork.user[20] WaitTime ETV
vector 190 DatabaseNetwork.user[44] ReadAccesses ETV
vector 191 DatabaseNetwork.user[44] WaitTime ETV
vector 192 DatabaseNetwork.user[39] ReadAccesses ETV
vector 193 DatabaseNetwork.user[31] ReadAccesses ETV
vector 194 DatabaseNetwork.user[39] WaitTime ETV
vector 195 DatabaseNetwork.user[31] WaitTime ETV
vector 196 DatabaseNetwork.user[6] WriteAccesses ETV
vector 197 DatabaseNetwork.user[29] WriteAccesses ETV
vector 198 DatabaseNetwork.user[63] ReadAccesses ETV
vector 199 DatabaseNetwork.user[63] WaitTime ETV
vector 200 DatabaseNetwork.user[57] ReadAccesses ETV
vector 201 DatabaseNetwork.user[57] WaitTime ETV
vector 202 DatabaseNetwork.user[5] ReadAccesses ETV
vector 203 DatabaseNetwork.user[5] WaitTime ETV
vector 204 DatabaseNetwork.user[24] ReadAccesses ETV
vector 205 DatabaseNetwork.user[24] WaitTime ETV
vector 206 DatabaseNetwork.user[55] WriteAccesses ETV
vector 207 DatabaseNetwork.user[46] ReadAccesses ETV
vector 208 DatabaseNetwork.user[55] WaitTime ETV
vector 209 DatabaseNetwork.user[46] WaitTime ETV
vector 210 DatabaseNetwork.user[61] ReadAccesses ETV
vector 211 DatabaseNetwork.user[61] WaitTime ETV
vector 212 DatabaseNetwork.user[15] WriteAccesses ETV
vector 213 DatabaseNetwork.user[16] ReadAccesses ETV
vector 214 DatabaseNetwork.user[1] ReadAccesses ETV
vector 215 DatabaseNetwork.user[1] WaitTime ETV
vector 216 DatabaseNetwork.user[17] WriteAccesses ETV
vector 217 DatabaseNetwork.user[17] WaitTime ETV
vector 218 DatabaseNetwork.user[59] ReadAccesses ETV
vector 219 DatabaseNetwork.user[59] WaitTime ETV
vector 220 DatabaseNetwork.user[31] WriteAccesses ETV
vector 221 DatabaseNetwork.user[55] ReadAccesses ETV
vector 222 DatabaseNetwork.user[56] ReadAccesses ETV
vector 223 DatabaseNetwork.user[62] ReadAccesses ETV
vector 224 DatabaseNetwork.user[62] WaitTime ETV
vector 225 DatabaseNetwork.user[68] WriteAccesses ETV
vector 226 DatabaseNetwork.user[45] ReadAccesses ETV
vector 227 DatabaseNetwork.user[45] WaitTime ETV
vector 228 DatabaseNetwork.user[61] WriteAccesses ETV
vector 229 DatabaseNetwork.user[25] WriteAccesses ETV
vector 230 DatabaseNetwork.user[42] ReadAccesses ETV
vector 231 DatabaseNetwork.user[42] WaitTime ETV
vector 232 DatabaseNetwork.user[38] WriteAccesses ETV
vector 233 DatabaseNetwork.user[38] WaitTime ETV
vector 234 DatabaseNetwork.user[34] WriteAccesses ETV
vector 235 DatabaseNetwork.user[65] WriteAccesses ETV
vector 236 DatabaseNetwork.user[53] WriteAccesses ETV
vector 237 DatabaseNetwork.user[45] WriteAccesses ETV
vector 238 DatabaseNetwork.user[38] ReadAccesses ETV
vector 239 DatabaseNetwork.user[58] ReadAccesses ETV
vector 240 DatabaseNetwork.user[0] ReadAccesses ETV
vector 241 DatabaseNetwork.user[74] WriteAccesses ETV
vector 242 DatabaseNetwork.user[0] WaitTime ETV
vector 243 DatabaseNetwork.user[28] WriteAccesses ETV
vector 244 DatabaseNetwork.user[63] WriteAccesses ETV
vector 245 DatabaseNetwork.user[4] ReadAccesses ETV
vector 246 DatabaseNetwork.user[4] WaitTime ETV
vector 247 DatabaseNetwork.user[47] WriteAccesses ETV
vector 248 DatabaseNetwork.user[12] ReadAccesses ETV
vector 249 DatabaseNetwork.user[12] WaitTime ETV
vector 250 DatabaseNetwork.user[26] ReadAccesses ETV
vector 251 DatabaseNetwork.user[26] WaitTime ETV
vector 252 DatabaseNetwork.user[9] WriteAccesses ETV
vector 253 DatabaseNetwork.user[10] WriteAccesses ETV
vector 254 DatabaseNetwork.user[24] WriteAccesses ETV
vector 255 DatabaseNetwork.user[18] WriteAccesses ETV
vector 256 DatabaseNetwork.user[5] WriteAccesses ETV
vector 257 DatabaseNetwork.user[26] WriteAccesses ETV
vector 258 DatabaseNetwork.user[59] WriteAccesses ETV
vector 259 DatabaseNetwork.user[11] WriteAccesses ETV
vector 260 DatabaseNetwork.user[14] WriteAccesses ETV
vector 261 DatabaseNetwork.user[3] WriteAccesses ETV
vector 262 DatabaseNetwork.user[17] ReadAccesses ETV
vector 263 DatabaseNetwork.user[40] WriteAccesses ETV
vector 264 DatabaseNetwork.user[50] WriteAccesses ETV
vector 265 DatabaseNetwork.user[42] WriteAccesses ETV
vector 266 DatabaseNetwork.user[69] WriteAccesses ETV
vector 267 DatabaseNetwork.user[70] WriteAccesses ETV
vector 268 DatabaseNetwork.user[19] WriteAccesses ETV
vector 269 DatabaseNetwork.user[46] WriteAccesses ETV
vector 270 DatabaseNetwork.user[52] WriteAccesses ETV
vector 271 DatabaseNetwork.user[54] WriteAccesses ETV
vector 272 DatabaseNetwork.user[22] WriteAccesses ETV
vector 273 DatabaseNetwork.user[44] WriteAccesses ETV
vector 274 DatabaseNetwork.user[51] WriteAccesses ETV
vector 275 DatabaseNetwork.user[60] WriteAccesses ETV
vector 276 DatabaseNetwork.user[67] WriteAccesses ETV
vector 277 DatabaseNetwork.user[4] WriteAccesses ETV
vector 278 DatabaseNetwork.user[8] WriteAccesses ETV
vector 279 DatabaseNetwork.user[12] WriteAccesses ETV
vector 280 DatabaseNetwork.user[20] WriteAccesses ETV
vector 281 DatabaseNetwork.user[13] WriteAccesses ETV
vector 282 DatabaseNetwork.user[0] WriteAccesses ETV
vector 283 DatabaseNetwork.user[23] WriteAccesses ETV
vector 284 DatabaseNetwork.user[39] WriteAccesses ETV
vector 285 DatabaseNetwork.user[7] WriteAccesses ETV
vector 286 DatabaseNetwork.user[72] WriteAccesses ETV
vector 287 DatabaseNetwork.user[21] WriteAccesses ETV
vector 288 DatabaseNetwork.user[33] WriteAccesses ETV
vector 289 DatabaseNetwork.user[30] WriteAccesses ETV
vector 290 DatabaseNetwork.user[2] WriteAccesses ETV
vector 291 DatabaseNetwork.user[64] WriteAccesses ETV
vector 292 DatabaseNetwork.user[62] WriteAccesses ETV
vector 293 DatabaseNetwork.user[35] WriteAccesses ETV
vector 294 DatabaseNetwork.user[73] WriteAccesses ETV
vector 295 DatabaseNetwork.user[43] WriteAccesses ETV
vector 296 DatabaseNetwork.user[71] WriteAccesses ETV
vector 297 DatabaseNetwork.user[57] WriteAccesses ETV
vector 298 DatabaseNetwork.user[27] WriteAccesses ETV
vector 299 DatabaseNetwork.user[1] WriteAccesses ETV
0	16858 20902 0 148051 0 9970.555061032533 497 0.18139428715189 160.10426925622 10011.394725192 435023.99877442
1	37760 20787 0 148473 0 9999.872883401892 495 0.016779579037574 113.33861003921 10030.453520063 394972.68266977
2	58547 20738 0 148093 0 9973.072395371075 494 0.026429950347352 117.79584095338 10027.960165078 381923.57195052
3	79285 20697 0 148029 0 9969.024795239286 493 0.022078058516981 147.63342473585 10074.18326195 436496.94686825
4	99982 19425 0 148065 0 9971.63122281723 463 0.17704546094971 123.4374936468 10014.768851258 427824.62414912
5	119407 21451 0 148213 0 9981.31168510972 511 0.13491332890932 115.67516280124 10078.959691418 391942.83459084
6	140858 20307 0 146059 0 9832.902504066965 485 0.042172473088365 179.91393073535 10012.816434802 401506.97215819
7	161165 20711 0 148289 0 9985.421488702285 494 0.023058603711706 149.47640449352 10021.364160605 409517.75187626
8	181876 20782 0 148037 0 9970.068200403292 496 0.063023366194993 182.24076717742 10004.788870269 412495.93753641
9	202658 20887 0 148249 0 9983.245335696169 498 0.073833609977047 117.63134764788 10003.761407298 370224.74847349
10	223545 22600 0 148463 0 9999.082773631075 526 0.032548142725536 124.76359592482 10011.818894498 390182.36425552
11	246145 21644 0 148425 0 9996.571775660226 504 0.034986682396397 103.35649972809 10017.268411551 408985.42762326
12	267789 22090 0 147879 0 9957.654028506113 513 0.10566437150097 117.78962312441 10071.004624099 371839.99791037
13	289879 21550 0 148235 0 9982.568006380177 502 0.031010098868493 119.40045461219 10027.148637847 371643.54370831
14	311429 21295 0 148169 0 9978.29590256605 496 0.020457585843691 92.779273010926 10003.917491227 384671.18517074
15	332724 21553 0 148317 0 9987.194433644169 502 0.054463336779505 127.16578786748 10004.806894766 422065.10262555
16	354277 21139 0 148165 0 9977.123762763472 493 0.0091381196259519 172.9193582331 10027.826481777 430129.83982659
17	375416 21227 0 148193 0 9979.499184684701 494 0.038912734177054 108.08828088938 10005.548729654 391760.66376591
18	396643 22191 0 148461 0 9998.996292429499 517 0.03271125503263 121.75765410774 10002.890261233 384342.23495882
19	418834 19610 0 148297 0 9986.262396143744 457 0.017726735908624 133.43890226054 10002.91646197 428414.7391564
20	438444 19472 0 147473 0 9929.096011779905 454 0.0060473397169772 130.82078394414 10002.625086384 448699.80678444
21	457916 22453 0 148469 0 9999.620991483791 524 0.031859415897683 135.77092207378 10058.242656054 399324.12702173
22	480369 22769 0 148389 0 9993.065418067915 530 0.021503509984749 116.16408987543 10000.233704676 364784.98254149
23	503138 20737 0 148361 0 9990.553221959723 483 0.028120770429026 111.20446471493 10040.91988592 394525.74043493
24	523875 22173 0 148277 0 9984.568947093487 516 0.021845923054415 113.01222738526 10043.253700391 391683.57815035
25	546048 21199 0 147633 0 9939.32957321323 494 0.055356413788697 125.12940544161 10057.874449487 413781.40646019
26	567247 21890 0 148347 0 9989.168026237589 509 0.029001559074987 142.42586720194 10003.92967522 397037.26564726
27	589137 21151 0 148441 0 9997.077909605288 493 0.035345881931518 131.19391599351 10034.915111514 426432.43842034
28	610288 21097 0 148123 0 9974.823813119999 492 0.048551784331375 114.3521312592 10046.038522027 398181.4718737
29	631385 21237 0 148381 0 9992.651386714862 495 0.027898385333462 156.40416278677 10027.669071198 442204.69732332
30	652622 21645 0 148433 0 9996.917342121417 504 0.0052266691345615 107.33116461635 10014.714491778 388606.44819612
31	674267 22937 0 147701 0 9945.634426852061 534 0.027221937622001 131.60192713701 10028.550434619 391405.61707908
32	697204 21079 0 148111 0 9973.914717932662 491 0.04552199917112 157.39789253232 10011.68315133 416108.87261677
33	718283 20922 0 148331 0 9988.490074798866 487 0.01833586222105 113.13867817313 10010.529057073 405655.6336894
34	739205 21382 0 148073 0 9972.376163102606 498 0.0047704166049461 130.9763476901 10013.641108955 397286.77986397
35	760587 20948 0 148435 0 9996.937699502855 487 0.027165837685591 148.79572445501 10001.028672739 388027.96352767
36	781535 21701 0 147341 0 9919.690838745852 506 0.017486601938623 117.94436001131 10001.81348217 395844.01726143
37	803236 22181 0 147903 0 9959.948360665533 517 0.0077699500993192 106.9547431533 10005.558539946 384306.8856706
38	825417 21403 0 147857 0 9955.619103981247 499 0.023769844084829 146.39549301085 10002.57324034 398393.55627057
39	846820 21517 0 148411 0 9994.839228965439 501 0.059647695506006 117.29685241997 10005.476630632 392518.47836155
40	868337 20875 0 148185 0 9979.144580597107 486 0.019891833018879 128.60403655184 10015.728461871 401905.66790034
41	889212 21147 0 147815 0 9951.961220122061 492 0.11504243849941 133.37861593771 10033.068282368 394568.90774524
42	910359 21746 0 148409 0 9994.837353969517 507 0.0070298942149069 125.45888494074 10055.872237044 397528.43326712
43	932105 22030 0 148145 0 9976.106070615944 513 0.0642799693182 151.73662445669 10045.305413242 420198.10690799
44	954135 21004 0 148013 0 9967.888709274285 489 0.045622382073834 129.24088961763 10007.446544338 394974.4814322
45	975139 20076 0 148141 0 9975.579695136805 468 0.0035970213786509 155.77766181662 10022.496752355 426700.71365643
46	995215 21967 0 148453 0 9998.372264800073 511 0.02717576509202 140.3559909028 10009.866657547 374973.67704836
47	1017182 21809 0 148449 0 9997.306611707889 508 0.060949337451737 127.01302391498 10002.195632599 384026.38395129
48	1038991 21347 0 148321 0 9987.719243868411 498 0.0047075094875229 119.02138527722 10033.135425919 376192.98542962
49	1060338 22520 0 147513 0 9931.923766651016 525 0.058167451875696 122.28847109043 10054.212237741 383116.08357012
50	1082858 20939 0 148377 0 9992.510066481055 487 0.010384408941758 130.02507343691 10017.574296702 429034.67969011
51	1103797 20023 0 148345 0 9989.118146564495 467 0.02076962561358 152.4351458678 10005.489194634 439499.86436766
52	1123820 19731 0 148373 0 9992.322801287414 459 0.038166887531045 132.26562646478 10000.234139653 447074.45469754
53	1143551 21371 0 148301 0 9986.627907999846 497 0.0035495340702879 113.16340813915 10002.878719395 393848.31118696
54	1164922 22345 0 147955 0 9963.797014966258 521 0.082956754961815 121.21261789731 10001.050343876 378109.02604023
55	1187267 19814 0 148457 0 9998.801818969975 462 0.021598518733322 210.41834474277 10004.116076541 463822.35325474
56	1207081 22803 0 147567 0 9934.465500102445 531 0.017505762028236 140.88108466342 10006.083036654 377067.87176054
57	1229884 19634 0 148117 0 9974.144725136949 458 0.018951257522549 154.14154651343 10050.982885585 424147.51504592
58	1249518 21715 0 148339 0 9988.91614180475 506 0.025127615630711 113.75283532836 10052.164178619 395447.25339596
59	1271233 18870 0 148443 0 9997.173392165677 440 0.011766632886696 166.20357958534 10000.372836147 461626.61795547
60	1290103 20886 0 147845 0 9954.100431559482 486 0.01774407387649 120.75028365412 10000.436308777 406676.21231501
61	1310989 21164 0 148033 0 9969.773160051106 494 0.042554896355552 121.8905558744 10024.967864855 391209.2816849
62	1332153 21350 0 148171 0 9978.39499321176 498 0.005759424847646 121.5941843788 10012.676813425 381540.61600798
63	1353503 20732 0 148357 0 9990.352465973627 483 0.09226133622869 126.77384637868 10004.679061473 424411.09448234
64	1374235 20677 0 148417 0 9995.060932313752 482 0.036250388762701 148.02516041474 10014.402261643 422638.67055979
65	1394912 21653 0 148329 0 9988.458812183836 504 0.0087820039761462 149.98715014778 10019.490308542 396493.31729632
66	1416565 21876 0 147963 0 9963.95863915093 510 0.049270023755382 138.08600591433 10002.774788559 401270.33036842
67	1438441 22302 0 148015 0 9967.954845661826 519 0.016075498513134 124.66555801073 10000.568186243 412483.68319494
68	1460743 20899 0 148403 0 9994.712787462208 487 0.016977778009502 114.63252231068 10013.084751876 401285.53459946
69	1481642 21036 0 148269 0 9984.38242708221 490 0.093972201899089 159.31111382139 10009.383513924 410467.7095117
70	1502678 21378 0 148253 0 9983.4051429331 498 0.017105752941878 118.61721377921 10019.215452225 382141.92645617
71	1524056 21701 0 148429 0 9996.752281718214 505 0.0091234399384687 117.99193573379 10030.867617787 380112.2705628
72	1545757 22179 0 148257 0 9983.635219949622 516 0.0099441912362133 171.89249925954 10002.823377953 404981.9086465
73	1567936 19772 0 148243 0 9982.808160665986 461 0.23939732236983 112.84400619283 10009.07639402 419562.54979962
74	1587708 21136 0 148041 0 9970.238243859359 492 0.018141728023669 147.20731768034 10003.773799777 399086.49872418
75	1608844 13643 1 148469 0.103450084854 9999.620991483791 472 1 1 472 472
76	1622487 12553 3 148169 0.124994920538 9978.29590256605 432 1 1 432 432
77	1635040 12845 5 148111 0.180534259308 9973.914717932662 442 1 1 442 442
78	1647885 23200 8 148472 0.203450084854 9999.720991483791 523 0.099999999998545 0.19293510850548 52.468413176276 5.2754660565592
79	1671085 21955 10 148174 0.224994920538 9978.39590256605 495 0.099999999998545 0.18168325047645 49.656835464319 4.9936871015165
80	1693040 21730 12 148116 0.280534259308 9974.014717932662 490 0.099999999998545 0.13706865477616 49.040373021491 4.9094596083046
81	1714770 12856 13 147815 0.384160801167 9951.961220122061 442 1 1 442 442
82	1727626 21839 16 147822 0.484160801167 9952.061220122061 491 0.099999999998545 0.16696103724462 49.28760370331 4.9573531945749
83	1749465 13945 17 148015 0.728263474785 9967.954845661826 480 1 1 480 480
84	1763410 13527 19 148075 0.811864623012 9972.394173997413 466 1 1 466 466
85	1776937 22998 22 148022 0.828263474785 9968.054845661826 518 0.099999999998545 0.17775051196077 52.123809654824 5.2661256250161
86	1799935 1852 23 147341 0.903296000607 9919.690838745852 64 1 1 64 64
87	1801787 22719 26 148148 0.911864623012 9976.206070615944 512 0.099999999998545 0.1395372430261 51.239537243045 5.1294706421951
88	1824506 22383 28 147344 1.003296000607 9919.790838745852 505 0.099999999998545 0.19179343324299 50.658249948114 5.0944924923759
89	1846889 11958 29 148345 1.359358055177 9989.118146564495 412 1 1 412 412
90	1858847 20642 32 148350 1.459358055177 9989.218146564495 466 0.099999999998545 0.189085406667 46.798543645881 4.7158681547804
91	1879489 12635 33 148265 1.558119222586 9984.167085078703 435 1 1 435 435
92	1892124 21601 36 148380 1.658119222586 9992.610066481055 486 0.099999999998545 0.14638179585199 48.649162575272 4.871991518775
93	1913725 1515 37 141249 2.290119420087 9498.317457866725 53 1 1 53 53
94	1915240 22530 40 147970 2.390119420087 9964.05863915093 509 0.099999999998545 0.1983033107972 51.180898121342 5.1697066061424
95	1937770 13051 41 148425 3.050537345286 9996.571775660226 450 1 1 450 450
96	1950821 22299 44 148428 3.150537345286 9996.671775660226 503 0.099999999998545 0.18688337236017 50.413977942325 5.0610784245792
97	1973120 12516 45 148403 3.44481259217 9994.712787462208 431 1 1 431 431
98	1985636 21572 48 148408 3.54481259217 9994.812787462208 486 0.099999999998545 0.15274762644913 48.685271728863 4.8808944751059
99	2007208 12605 49 148123 3.578759603203 9974.823813119999 435 1 1 435 435
100	2019813 13698 51 147955 3.677788115414 9963.797014966258 457 1 1 457 457
101	2033511 22258 54 148128 3.678759603203 9974.923813119999 491 0.099999999998545 0.18169853021709 49.335486125988 4.9717250929233
102	2055769 23587 56 147960 3.777788115414 9963.897014966258 520 0.099999999998545 0.15267777124427 52.092263944581 5.222026392317
103	2079356 13516 57 148029 3.791644837522 9969.024795239286 450 1 1 450 450
104	2092872 13536 59 148321 3.803012575959 9987.719243868411 451 1 1 451 451
105	2106408 13470 61 148301 3.868327182727 9986.627907999846 448 1 1 448 448
106	2119878 22311 64 148032 3.891644837522 9969.124795239286 492 0.099999999998545 0.19421436598168 49.558909391289 5.01553106743
107	2142189 22525 66 148324 3.903012575959 9987.819243868411 497 0.099999999998545 0.18521680121012 49.841394954993 5.0074314256128
108	2164714 22546 68 148304 3.968327182727 9986.727907999846 496 0.099999999998545 0.17684212722816 49.794051541638 5.008490457929
109	2187260 12449 69 148243 3.986601970845 9982.808160665986 415 1 1 415 415
110	2199709 20876 72 148248 4.086601970845 9982.908160665986 460 0.099999999998545 0.18740179536826 46.127086565571 4.6346312679338
111	2220585 1425 73 147323 4.124542046615 9919.0566936592 48 1 1 48 48
112	2222010 14109 77 147771 4.405081391127 9949.390515952335 470 1 1 470 470
113	2236119 24039 80 148392 4.505081391127 9993.165418067915 529 0.099999999998545 0.15134189724722 53.043234364492 5.3243593447271
114	2260158 13832 81 148429 4.744356508647 9996.752281718214 460 1 1 460 460
115	2273990 22927 84 148432 4.844356508647 9996.852281718214 504 0.099999999998545 0.19685872246555 50.630929949216 5.1033453976672
116	2296917 14155 85 148463 4.869208481028 9999.082773631075 471 1 1 471 471
117	2311072 23814 88 148468 4.969208481028 9999.182773631075 525 0.099999999998545 0.18287930405018 52.763552647944 5.3199760726021