file 2918382 1767629712                                         
version 3
run Lognormal-18-20260105-17:15:12-28123
attr configname Lognormal
attr datetime 20260105-17:15:12
attr datetimef 20260105-171512
attr experiment Lognormal
attr inifile omnetpp.ini
attr iterationvars "$N=50, $p=0.8"
attr iterationvarsd N=50/p=0.8
attr iterationvarsf N=50,p=0.8-
attr measurement "$N=50, $p=0.8"
attr network progetto.DatabaseNetwork
attr processid 28123
attr repetition 3
attr replication #3
attr resultdir results
attr runnumber 18
attr seedset 3
itervar N 50
itervar p 0.8
config description "Lognormal distribution (hotspots) - varia N e p"
config *.user[*].tableDistribution "\"lognormal\""
config *.user[*].lognormalM 1.5
config *.user[*].lognormalS 1.0
config *.numUsers 50
config *.user[*].readProbability 0.8
config network progetto.DatabaseNetwork
config sim-time-limit 10000s
config cpu-time-limit 3600s
config repeat 5
config seed-set 3
config output-vector-file "results/Lognormal-$N=50, $p=0.8-3.vec"
config output-scalar-file "results/Lognormal-$N=50, $p=0.8-3.sca"
config result-dir results
config **.vector-recording true
config **.scalar-recording true
config *.numTables 20
config *.user[*].lambda 0.05
config *.user[*].serviceTime 0.1s

vector 0 DatabaseNetwork.user[0] AccessInterval ETV
vector 1 DatabaseNetwork.user[1] AccessInterval ETV
vector 2 DatabaseNetwork.user[2] AccessInterval ETV
vector 3 DatabaseNetwork.user[3] AccessInterval ETV
vector 4 DatabaseNetwork.user[4] AccessInterval ETV
vector 5 DatabaseNetwork.user[5] AccessInterval ETV
vector 6 DatabaseNetwork.user[6] AccessInterval ETV
vector 7 DatabaseNetwork.user[7] AccessInterval ETV
vector 8 DatabaseNetwork.user[8] AccessInterval ETV
vector 9 DatabaseNetwork.user[9] AccessInterval ETV
vector 10 DatabaseNetwork.user[10] AccessInterval ETV
vector 11 DatabaseNetwork.user[11] AccessInterval ETV
vector 12 DatabaseNetwork.user[12] AccessInterval ETV
vector 13 DatabaseNetwork.user[13] AccessInterval ETV
vector 14 DatabaseNetwork.user[14] AccessInterval ETV
vector 15 DatabaseNetwork.user[15] AccessInterval ETV
vector 16 DatabaseNetwork.user[16] AccessInterval ETV
vector 17 DatabaseNetwork.user[17] AccessInterval ETV
vector 18 DatabaseNetwork.user[18] AccessInterval ETV
vector 19 DatabaseNetwork.user[19] AccessInterval ETV
vector 20 DatabaseNetwork.user[20] AccessInterval ETV
vector 21 DatabaseNetwork.user[21] AccessInterval ETV
vector 22 DatabaseNetwork.user[22] AccessInterval ETV
vector 23 DatabaseNetwork.user[23] AccessInterval ETV
vector 24 DatabaseNetwork.user[24] AccessInterval ETV
vector 25 DatabaseNetwork.user[25] AccessInterval ETV
vector 26 DatabaseNetwork.user[26] AccessInterval ETV
vector 27 DatabaseNetwork.user[27] AccessInterval ETV
vector 28 DatabaseNetwork.user[28] AccessInterval ETV
vector 29 DatabaseNetwork.user[29] AccessInterval ETV
vector 30 DatabaseNetwork.user[30] AccessInterval ETV
vector 31 DatabaseNetwork.user[31] AccessInterval ETV
vector 32 DatabaseNetwork.user[32] AccessInterval ETV
vector 33 DatabaseNetwork.user[33] AccessInterval ETV
vector 34 DatabaseNetwork.user[34] AccessInterval ETV
vector 35 DatabaseNetwork.user[35] AccessInterval ETV
vector 36 DatabaseNetwork.user[36] AccessInterval ETV
vector 37 DatabaseNetwork.user[37] AccessInterval ETV
vector 38 DatabaseNetwork.user[38] AccessInterval ETV
vector 39 DatabaseNetwork.user[39] AccessInterval ETV
vector 40 DatabaseNetwork.user[40] AccessInterval ETV
vector 41 DatabaseNetwork.user[41] AccessInterval ETV
vector 42 DatabaseNetwork.user[42] AccessInterval ETV
vector 43 DatabaseNetwork.user[43] AccessInterval ETV
vector 44 DatabaseNetwork.user[44] AccessInterval ETV
vector 45 DatabaseNetwork.user[45] AccessInterval ETV
vector 46 DatabaseNetwork.user[46] AccessInterval ETV
vector 47 DatabaseNetwork.user[47] AccessInterval ETV
vector 48 DatabaseNetwork.user[48] AccessInterval ETV
vector 49 DatabaseNetwork.user[49] AccessInterval ETV
vector 50 DatabaseNetwork.user[11] ReadAccesses ETV
vector 51 DatabaseNetwork.user[11] WaitTime ETV
vector 52 DatabaseNetwork.user[32] ReadAccesses ETV
vector 53 DatabaseNetwork.user[32] WaitTime ETV
vector 54 DatabaseNetwork.user[20] WriteAccesses ETV
vector 55 DatabaseNetwork.user[20] WaitTime ETV
vector 56 DatabaseNetwork.user[13] WriteAccesses ETV
vector 57 DatabaseNetwork.user[13] WaitTime ETV
vector 58 DatabaseNetwork.user[16] ReadAccesses ETV
vector 59 DatabaseNetwork.user[16] WaitTime ETV
vector 60 DatabaseNetwork.user[1] ReadAccesses ETV
vector 61 DatabaseNetwork.user[1] WaitTime ETV
vector 62 DatabaseNetwork.user[17] ReadAccesses ETV
vector 63 DatabaseNetwork.user[17] WaitTime ETV
vector 64 DatabaseNetwork.user[5] ReadAccesses ETV
vector 65 DatabaseNetwork.user[12] ReadAccesses ETV
vector 66 DatabaseNetwork.user[5] WaitTime ETV
vector 67 DatabaseNetwork.user[12] WaitTime ETV
vector 68 DatabaseNetwork.user[21] ReadAccesses ETV
vector 69 DatabaseNetwork.user[21] WaitTime ETV
vector 70 DatabaseNetwork.user[46] ReadAccesses ETV
vector 71 DatabaseNetwork.user[46] WaitTime ETV
vector 72 DatabaseNetwork.user[20] ReadAccesses ETV
vector 73 DatabaseNetwork.user[14] ReadAccesses ETV
vector 74 DatabaseNetwork.user[14] WaitTime ETV
vector 75 DatabaseNetwork.user[25] ReadAccesses ETV
vector 76 DatabaseNetwork.user[25] WaitTime ETV
vector 77 DatabaseNetwork.user[15] ReadAccesses ETV
vector 78 DatabaseNetwork.user[15] WaitTime ETV
vector 79 DatabaseNetwork.user[36] ReadAccesses ETV
vector 80 DatabaseNetwork.user[36] WaitTime ETV
vector 81 DatabaseNetwork.user[45] ReadAccesses ETV
vector 82 DatabaseNetwork.user[26] ReadAccesses ETV
vector 83 DatabaseNetwork.user[45] WaitTime ETV
vector 84 DatabaseNetwork.user[26] WaitTime ETV
vector 85 DatabaseNetwork.user[40] ReadAccesses ETV
vector 86 DatabaseNetwork.user[40] WaitTime ETV
vector 87 DatabaseNetwork.user[4] WriteAccesses ETV
vector 88 DatabaseNetwork.user[4] WaitTime ETV
vector 89 DatabaseNetwork.user[41] ReadAccesses ETV
vector 90 DatabaseNetwork.user[41] WaitTime ETV
vector 91 DatabaseNetwork.user[27] ReadAccesses ETV
vector 92 DatabaseNetwork.user[27] WaitTime ETV
vector 93 DatabaseNetwork.user[37] ReadAccesses ETV
vector 94 DatabaseNetwork.user[37] WaitTime ETV
vector 95 DatabaseNetwork.user[38] ReadAccesses ETV
vector 96 DatabaseNetwork.user[38] WaitTime ETV
vector 97 DatabaseNetwork.user[9] ReadAccesses ETV
vector 98 DatabaseNetwork.user[9] WaitTime ETV
vector 99 DatabaseNetwork.user[44] ReadAccesses ETV
vector 100 DatabaseNetwork.user[18] ReadAccesses ETV
vector 101 DatabaseNetwork.user[44] WaitTime ETV
vector 102 DatabaseNetwork.user[18] WaitTime ETV
vector 103 DatabaseNetwork.user[23] ReadAccesses ETV
vector 104 DatabaseNetwork.user[47] WriteAccesses ETV
vector 105 DatabaseNetwork.user[23] WaitTime ETV
vector 106 DatabaseNetwork.user[22] ReadAccesses ETV
vector 107 DatabaseNetwork.user[22] WaitTime ETV
vector 108 DatabaseNetwork.user[47] WaitTime ETV
vector 109 DatabaseNetwork.user[46] WriteAccesses ETV
vector 110 DatabaseNetwork.user[29] ReadAccesses ETV
vector 111 DatabaseNetwork.user[29] WaitTime ETV
vector 112 DatabaseNetwork.user[6] ReadAccesses ETV
vector 113 DatabaseNetwork.user[6] WaitTime ETV
vector 114 DatabaseNetwork.user[4] ReadAccesses ETV
vector 115 DatabaseNetwork.user[37] WriteAccesses ETV
vector 116 DatabaseNetwork.user[48] ReadAccesses ETV
vector 117 DatabaseNetwork.user[48] WaitTime ETV
vector 118 DatabaseNetwork.user[0] WriteAccesses ETV
vector 119 DatabaseNetwork.user[39] ReadAccesses ETV
vector 120 DatabaseNetwork.user[0] WaitTime ETV
vector 121 DatabaseNetwork.user[39] WaitTime ETV
vector 122 DatabaseNetwork.user[34] ReadAccesses ETV
vector 123 DatabaseNetwork.user[34] WaitTime ETV
vector 124 DatabaseNetwork.user[7] ReadAccesses ETV
vector 125 DatabaseNetwork.user[7] WaitTime ETV
vector 126 DatabaseNetwork.user[43] ReadAccesses ETV
vector 127 DatabaseNetwork.user[43] WaitTime ETV
vector 128 DatabaseNetwork.user[30] ReadAccesses ETV
vector 129 DatabaseNetwork.user[30] WaitTime ETV
vector 130 DatabaseNetwork.user[17] WriteAccesses ETV
vector 131 DatabaseNetwork.user[24] WriteAccesses ETV
vector 132 DatabaseNetwork.user[24] WaitTime ETV
vector 133 DatabaseNetwork.user[28] WriteAccesses ETV
vector 134 DatabaseNetwork.user[28] WaitTime ETV
vector 135 DatabaseNetwork.user[27] WriteAccesses ETV
vector 136 DatabaseNetwork.user[42] WriteAccesses ETV
vector 137 DatabaseNetwork.user[42] WaitTime ETV
vector 138 DatabaseNetwork.user[19] ReadAccesses ETV
vector 139 DatabaseNetwork.user[19] WaitTime ETV
vector 140 DatabaseNetwork.user[7] WriteAccesses ETV
vector 141 DatabaseNetwork.user[2] ReadAccesses ETV
vector 142 DatabaseNetwork.user[2] WaitTime ETV
vector 143 DatabaseNetwork.user[16] WriteAccesses ETV
vector 144 DatabaseNetwork.user[49] WriteAccesses ETV
vector 145 DatabaseNetwork.user[49] WaitTime ETV
vector 146 DatabaseNetwork.user[33] ReadAccesses ETV
vector 147 DatabaseNetwork.user[33] WaitTime ETV
vector 148 DatabaseNetwork.user[40] WriteAccesses ETV
vector 149 DatabaseNetwork.user[48] WriteAccesses ETV
vector 150 DatabaseNetwork.user[13] ReadAccesses ETV
vector 151 DatabaseNetwork.user[3] ReadAccesses ETV
vector 152 DatabaseNetwork.user[3] WaitTime ETV
vector 153 DatabaseNetwork.user[41] WriteAccesses ETV
vector 154 DatabaseNetwork.user[49] ReadAccesses ETV
vector 155 DatabaseNetwork.user[14] WriteAccesses ETV
vector 156 DatabaseNetwork.user[0] ReadAccesses ETV
vector 157 DatabaseNetwork.user[8] ReadAccesses ETV
vector 158 DatabaseNetwork.user[8] WaitTime ETV
vector 159 DatabaseNetwork.user[10] WriteAccesses ETV
vector 160 DatabaseNetwork.user[10] WaitTime ETV
vector 161 DatabaseNetwork.user[31] ReadAccesses ETV
vector 162 DatabaseNetwork.user[31] WaitTime ETV
vector 163 DatabaseNetwork.user[45] WriteAccesses ETV
vector 164 DatabaseNetwork.user[30] WriteAccesses ETV
vector 165 DatabaseNetwork.user[6] WriteAccesses ETV
vector 166 DatabaseNetwork.user[28] ReadAccesses ETV
vector 167 DatabaseNetwork.user[5] WriteAccesses ETV
vector 168 DatabaseNetwork.user[43] WriteAccesses ETV
vector 169 DatabaseNetwork.user[24] ReadAccesses ETV
vector 170 DatabaseNetwork.user[10] ReadAccesses ETV
vector 171 DatabaseNetwork.user[35] WriteAccesses ETV
vector 172 DatabaseNetwork.user[35] WaitTime ETV
vector 173 DatabaseNetwork.user[42] ReadAccesses ETV
vector 174 DatabaseNetwork.user[39] WriteAccesses ETV
vector 175 DatabaseNetwork.user[35] ReadAccesses ETV
vector 176 DatabaseNetwork.user[25] WriteAccesses ETV
vector 177 DatabaseNetwork.user[19] WriteAccesses ETV
vector 178 DatabaseNetwork.user[44] WriteAccesses ETV
vector 179 DatabaseNetwork.user[38] WriteAccesses ETV
vector 180 DatabaseNetwork.user[23] WriteAccesses ETV
vector 181 DatabaseNetwork.user[9] WriteAccesses ETV
vector 182 DatabaseNetwork.user[29] WriteAccesses ETV
vector 183 DatabaseNetwork.user[36] WriteAccesses ETV
vector 184 DatabaseNetwork.user[47] ReadAccesses ETV
vector 185 DatabaseNetwork.user[1] WriteAccesses ETV
vector 186 DatabaseNetwork.user[2] WriteAccesses ETV
vector 187 DatabaseNetwork.user[21] WriteAccesses ETV
vector 188 DatabaseNetwork.user[15] WriteAccesses ETV
vector 189 DatabaseNetwork.user[32] WriteAccesses ETV
vector 190 DatabaseNetwork.user[31] WriteAccesses ETV
vector 191 DatabaseNetwork.user[3] WriteAccesses ETV
vector 192 DatabaseNetwork.user[11] WriteAccesses ETV
vector 193 DatabaseNetwork.user[34] WriteAccesses ETV
vector 194 DatabaseNetwork.user[8] WriteAccesses ETV
vector 195 DatabaseNetwork.user[33] WriteAccesses ETV
vector 196 DatabaseNetwork.user[26] WriteAccesses ETV
vector 197 DatabaseNetwork.user[12] WriteAccesses ETV
vector 198 DatabaseNetwork.user[22] WriteAccesses ETV
vector 199 DatabaseNetwork.user[18] WriteAccesses ETV
0	11583 21471 0 99815 0 9987.602127316908 516 0.007479047717128 123.11526786441 10045.526072871 395750.6389026
1	33054 22162 0 99651 0 9972.227242901826 533 0.10226643015829 142.88426527076 10003.718048379 364204.97718744
2	55216 19825 0 99945 0 9998.728044113561 477 0.010712593799817 122.6721385108 10016.419924069 408962.23464714
3	75041 21097 0 99925 0 9997.850736889837 508 0.0800429180904 110.92709704499 10007.345633911 384795.96542343
4	96138 20185 0 99533 0 9961.34352252844 485 0.062252596247073 120.40094958465 10014.7654703 406203.78083341
5	116323 20183 0 99357 0 9941.854728914283 486 0.019894816216929 151.20854967726 10040.919574854 452421.95571533
6	136506 21301 0 99929 0 9998.099996706859 512 0.028152853028963 225.05446074172 10013.381558753 406998.63443719
7	157807 20302 0 99869 0 9991.918063346884 489 0.15189117821864 132.97416330326 10001.927469702 400778.06059494
8	178109 20770 0 99601 0 9968.098654266964 500 0.042157302490277 128.48635673662 10038.296916539 392566.51314113
9	198879 20724 0 99525 0 9960.55149879044 498 0.063928200683529 160.10904199969 10076.598842377 448017.40443294
10	219603 20372 0 99581 0 9967.563664546412 479 0.037770127354026 105.51231843107 10013.455582788 399656.93108644
11	239975 21900 0 99173 0 9928.15334238658 514 0.038584006938171 110.1057803554 10002.197522767 395836.90421621
12	261875 20168 0 99893 0 9993.986448609278 474 0.11620934640164 127.67243282417 10003.310917609 401870.22641789
13	282043 21354 0 99901 0 9994.398231895596 501 0.045710775265521 119.80975247525 10004.965731328 392096.41808498
14	303397 22161 0 99865 0 9991.81533241574 520 0.046123408011139 124.0672332975 10003.259574735 383505.45385924
15	325558 22055 0 99765 0 9983.023330027052 518 0.054828368158694 103.73537837627 10012.71475796 367521.44168441
16	347613 21943 0 99885 0 9993.062954547904 515 0.0079108492367303 124.11314944507 10011.458726669 385992.8695706
17	369556 20243 0 99797 0 9985.382123356739 476 0.1027697477237 166.22247997431 10013.114132932 446286.25248338
18	389799 20707 0 99497 0 9956.669194622444 487 0.023148281850809 116.89816264797 10001.183698541 391517.43045509
19	410506 22421 0 99513 0 9957.872701764933 526 0.00340333292487 140.69827984347 10010.671912921 367919.31457347
20	432927 19912 0 99939 0 9998.530972670138 468 0.0084339027593333 140.86468137091 10025.910625716 437533.41851586
21	452839 21440 0 99937 0 9998.518633700562 503 0.071436328498829 119.67005059116 10002.491818753 390359.54713039
22	474279 22064 0 99751 0 9982.190186299508 518 0.036874728249892 174.14948118317 10007.054447551 412556.9044022
23	496343 22048 0 99829 0 9988.203080173327 517 0.03202188360964 137.75161133363 10010.198730123 390711.70999163
24	518391 22661 0 99705 0 9978.693861603118 532 0.0012539440833576 165.55292645892 10006.616031581 385179.21577212
25	541052 20814 0 99801 0 9985.74194701836 489 0.10359056904613 114.48913051299 10045.878008041 398187.78317834
26	561866 20052 0 99285 0 9938.107291767561 471 0.056525667606476 152.28911998209 10001.698572914 423515.91287248
27	581918 21586 0 99825 0 9987.847413494712 507 0.021574599850278 123.11030721213 10008.167690824 391231.05801567
28	603504 22399 0 99853 0 9990.868617356544 526 0.025393876907691 128.10422122619 10011.870275542 366412.28089726
29	625903 21277 0 99933 0 9998.337224885025 500 0.0015927693787653 139.30162197618 10018.148963691 412802.67511949
30	647180 22458 0 99659 0 9972.3131129696 527 0.082211788960819 149.90156177853 10008.331940248 390443.9107502
31	669638 22187 0 99813 0 9987.562962895333 521 0.037447913047065 111.13413998377 10016.203754822 377964.84482301
32	691825 21054 0 99949 0 9999.309208337551 495 0.0051995978451505 124.34164981153 10026.72197998 402500.00077032
33	712879 20373 0 99743 0 9981.895403971032 479 0.058167932903804 147.72997462308 10120.132911575 429277.62277889
34	733252 21266 0 99917 0 9996.19836025113 500 0.12711280641614 146.38021377935 10023.396230826 413218.54896372
35	754518 21713 0 99837 0 9989.306559820826 510 0.0067739716008636 112.09228510812 10037.393404709 369243.41359375
36	776231 21247 0 99725 0 9980.987295307764 500 0.058872824308969 108.41332700917 10014.642420455 377802.90488222
37	797478 20318 0 99701 0 9978.056701674447 477 0.056226943217795 123.55126937643 10057.093011877 424561.0880328
38	817796 20776 0 99847 0 9989.735408276872 488 0.013223488671316 142.43677202105 10014.020280594 433140.5111068
39	838572 20407 0 99671 0 9972.442097119032 480 0.016701133296684 176.41508272807 10007.921369154 437098.51157627
40	858979 20481 0 99307 0 9939.246448423195 481 0.023872989768715 138.54582606471 10000.788663739 451073.58621549
41	879460 21436 0 99919 0 9996.201016671951 504 0.009578603778767 118.41540359098 10007.813362492 384836.13278014
42	900896 20610 0 99861 0 9991.200229497653 484 0.035114208175165 127.94583310069 10017.814730615 417873.15604109
43	921506 21668 0 99831 0 9988.287016457089 509 0.016473301243118 127.78509307249 10002.51570361 414550.73971497
44	943174 21347 0 99529 0 9960.694564498425 502 0.049434798978046 110.92803873653 10000.548713544 396395.52554015
45	964521 22481 0 99877 0 9992.607966157548 528 0.00093096239929842 142.02293578707 10014.657501122 387829.9241607
46	987002 21858 0 99597 0 9967.999516682089 514 0.050019981858296 131.9623142691 10000.908386649 374703.39386375
47	1008860 21288 0 99645 0 9972.084790309158 500 0.040594498554692 158.83540858549 10013.118626118 401722.4843895
48	1030148 21709 0 99953 0 9999.672982182854 510 0.016136078588728 167.5859426027 10000.251123839 433313.91294854
49	1051857 20622 0 99389 0 9944.552352569464 485 0.020363980921825 190.59601362892 10033.332377682 448035.17410565
50	1072479 11910 1 99173 0.378519642865 9928.15334238658 416 1 1 416 416
51	1084389 22593 4 99176 0.478519642865 9928.25334238658 513 0.099999999998545 0.19636712730789 51.621329197752 5.2158276122163
52	1106982 11166 5 99949 0.485482608732 9999.309208337551 390 1 1 390 390
53	1118148 21732 8 99952 0.585482608732 9999.409208337551 494 0.099999999998545 0.19370136839098 49.754011076475 5.0372519262879
54	1139880 2574 9 96901 0.606631994795 9708.229764238157 90 1 1 90 90
55	1142454 20549 12 99944 0.706631994795 9998.630972670138 467 0.099999999998545 0.19136697386602 46.948544187596 4.7377525692636
56	1163003 3330 13 98529 0.829584574702 9875.522484852712 116 1 1 116 116
57	1166333 22021 16 99904 0.929584574702 9994.498231895596 500 0.099999999998545 0.19351952350098 50.452588025745 5.1262767118412
58	1188354 11953 17 99885 1.05677835357 9993.062954547904 417 1 1 417 417
59	1200307 22615 20 99890 1.15677835357 9993.162954547904 514 0.099999999998545 0.19463334382101 51.650110554712 5.2060904608127
60	1222922 12071 21 99651 1.467008759288 9972.227242901826 421 1 1 421 421
61	1234993 23434 24 99662 1.567008759288 9972.327242901826 532 0.099999999998545 0.144483419224 53.244483419209 5.3308754584276
62	1258427 10975 25 99797 1.964421148736 9985.382123356739 383 1 1 383 383
63	1269402 20905 28 99800 2.064421148736 9985.482123356739 475 0.099999999998545 0.1783899916536 47.701857066806 4.8033317556289
64	1290307 11192 33 99357 2.586885229816 9941.854728914283 391 1 1 391 391
65	1301499 10772 35 99893 2.684010980209 9993.986448609278 376 1 1 376 376
66	1312271 21300 38 99362 2.686885229816 9941.954728914283 485 0.099999999998545 0.16455363958266 48.64394122266 4.8861714353093
67	1333571 20867 40 99896 2.784010980209 9994.086448609278 473 0.099999999998545 0.17695897086742 47.376958970853 4.7513144773677
68	1354438 11713 41 99937 3.141736494925 9998.518633700562 408 1 1 408 408
69	1366151 22164 44 99942 3.241736494925 9998.618633700562 502 0.099999999998545 0.18172490740699 50.469881797116 5.0909550248143
70	1388315 11609 45 99597 3.412628840718 9967.999516682089 405 1 1 405 405
71	1399924 22592 48 99604 3.512628840718 9968.099516682089 513 0.099999999998545 0.16641430205436 51.432394067186 5.1628646326521
72	1422516 10801 49 99939 3.686383546934 9998.530972670138 377 1 1 377 377
73	1433317 11849 53 99865 4.644767649377 9991.81533241574 413 1 1 413 413
74	1445166 22869 56 99868 4.744767649377 9991.91533241574 519 0.099999999998545 0.18046630972731 52.047377483712 5.229645089558
75	1468035 10885 57 99801 4.856137582298 9985.74194701836 380 1 1 380 380
76	1478920 21492 60 99804 4.956137582298 9985.84194701836 488 0.099999999998545 0.16293304519695 48.89236707699 4.903300345803
77	1500412 11763 61 99765 5.697408622634 9983.023330027052 410 1 1 410 410
78	1512175 22795 64 99768 5.797408622634 9983.123330027052 517 0.099999999998545 0.18705567968004 52.020855364833 5.259855615065
79	1534970 11334 65 99725 6.001907866846 9980.987295307764 396 1 1 396 396
80	1546304 21935 68 99728 6.101907866846 9981.087295307764 499 0.099999999998545 0.15011492578469 49.962357043559 5.0051327839458
81	1568239 11926 71 99877 6.429468674703 9992.607966157548 416 1 1 416 416
82	1580165 10656 75 99229 6.528105529747 9934.146612538475 372 1 1 372 372
83	1590821 23214 78 99882 6.529468674703 9992.707966157548 527 0.099999999998545 0.19906903760057 52.915020651062 5.3311017874632
84	1614035 20679 80 99290 6.628105529747 9938.207291767561 470 0.099999999998545 0.16586553928994 47.26893681104 4.7671656678814
85	1634714 10922 81 99307 6.668240890524 9939.246448423195 381 1 1 381 381
86	1645636 21127 84 99314 6.768240890524 9939.346448423195 480 0.099999999998545 0.16508242020245 48.205247532839 4.8525071259279
87	1666763 2728 85 99077 6.875308165935 9921.684441035035 95 1 1 95 95
88	1669491 21319 88 99536 6.975308165935 9961.44352252844 484 0.099999999998545 0.19413330441876 48.718900765391 4.9231937722449
89	1690810 10947 89 99897 7.316061781284 9994.193639987323 382 1 1 382 382
90	1701757 22120 92 99924 7.416061781284 9996.301016671951 503 0.099999999998545 0.19139322980391 50.490856955357 5.0847819061398
91	1723877 11824 93 99359 8.736176800439 9941.901332260415 412 1 1 412 412
92	1735701 22311 96 99828 8.836176800439 9987.947413494712 506 0.099999999998545 0.19481776275825 50.73669698679 5.0973800872992
93	1758012 10700 97 99701 10.295355755508 9978.056701674447 373 1 1 373 373
94	1768712 20952 100 99704 10.395355755508 9978.156701674447 476 0.099999999998545 0.18896156094252 47.688961560942 4.7857064715138
95	1789664 10879 101 99847 10.726328631756 9989.735408276872 380 1 1 380 380
96	1800543 21403 104 99852 10.826328631756 9989.835408276872 487 0.099999999998545 0.15839441038042 48.899663885012 4.919241062422
97	1821946 11805 105 99525 11.491713496228 9960.55149879044 411 1 1 411 411
98	1833751 21944 108 99528 11.591713496228 9960.65149879044 497 0.099999999998545 0.19257078348528 49.931892770275 5.0349451409307
99	1855695 11320 109 99529 11.612580851988 9960.694564498425 396 1 1 396 396
100	1867015 11490 111 99379 11.625313641091 9944.371610252121 388 1 1 388 388
101	1878505 22544 114 99532 11.712580851988 9960.794564498425 501 0.099999999998545 0.14957795006376 50.176871390087 5.028279044077
102	1901049 21872 116 99500 11.725313641091 9956.769194622444 486 0.099999999998545 0.10000000000036 48.600000000007 4.8600000000014
103	1922921 12159 117 99585 12.072430324157 9967.650450068464 409 1 1 409 409
104	1935080 3055 121 99069 12.125000917022 9919.891847921676 103 1 1 103 103
105	1938135 23263 124 99834 12.172430324157 9988.303080173327 516 0.099999999998545 0.11751969437591 51.61751969438 5.163810878567
106	1961398 12560 125 99751 12.206777311901 9982.190186299508 423 1 1 423 423
107	1973958 23308 130 99756 12.306777311901 9982.290186299508 517 0.099999999998545 0.19674072653197 51.967562290031 5.2468867232852
108	1997266 22513 132 99650 12.314107022588 9972.184790309158 499 0.099999999998545 0.189106105566 50.299802609465 5.0970343305739
109	2019779 3194 133 97969 12.784712320105 9819.614527536666 108 1 1 108 108
110	2022973 11712 141 99879 13.570528575678 9992.691890886679 395 1 1 395 395
111	2034685 22458 144 99936 13.670528575678 9998.437224885025 499 0.099999999998545 0.19620505192506 50.173444829864 5.0635333896323
112	2057143 11936 149 99929 14.300805947153 9998.099996706859 402 1 1 402 402
113	2069079 23039 152 99932 14.400805947153 9998.199996706859 511 0.099999999998545 0.17079966408892 51.183749297058 5.1319301448406
114	2092118 11543 153 99533 14.573711385179 9961.34352252844 389 1 1 389 389
115	2103661 3046 157 99073 14.933142838744 9921.268811286342 103 1 1 103 103
116	2106707 12191 161 99953 15.733735131438 9999.672982182854 411 1 1 411 411
117	2118898 22932 164 99956 15.833735131438 9999.772982182854 509 0.099999999998545 0.19971975715634 51.227362038873 5.1822695006548
118	2141830 3709 165 99325 16.005647817852 9940.085056103618 125 1 1 125 125
119	2145539 11005 167 99671 16.093732643296 9972.442097119032 371 1 1 371 371
120	2156544 23233 170 99822 16.105647817852 9987.702127316908 515 0.099999999998545 0.17996947536994 51.674712578685 5.1949163100829
121	2179777 21597 172 99676 16.193732643296 9972.542097119032 479 0.099999999998545 0.1665550447251 47.96655504472 4.8077405829224
122	2201374 12070 173 99789 16.367591712189 9984.527461425897 407 1 1 407 407
123	2213444 22483 176 99922 16.467591712189 9996.29836025113 499 0.099999999998545 0.18985906268244 50.188125777291 5.0667345415452
124	2235927 11798 181 99457 16.847395664611 9953.252834618227 398 1 1 398 398
125	2247725 21952 184 99872 16.947395664611 9992.018063346884 488 0.099999999998545 0.14506102524501 48.924407639446 4.9098563932101
126	2269677 12302 191 99831 17.66775889018 9988.287016457089 415 1 1 415 415
127	2281979 22920 196 99836 17.76775889018 9988.387016457089 508 0.099999999998545 0.19138510174503 51.063463436331 5.1496989287448
128	2304899 12364 197 99659 17.874095078863 9972.3131129696 416 1 1 416 416
129	2317263 23738 200 99670 17.974095078863 9972.4131129696 526 0.099999999998545 0.1933890832388 52.871147720701 5.3342939850948
130	2341001 2726 201 99485 18.978123097032 9955.440243609813 92 1 1 92 92
131	2343727 3170 229 99705 20.947590863274 9978.693861603118 107 1 1 107 107
132	2346897 23946 234 99710 21.047590863274 9978.793861603118 531 0.099999999998545 0.15334732188876 53.153347321883 5.3235154011293
133	2370843 3177 253 99689 22.555976236379 9975.785459974153 107 1 1 107 107
134	2374020 23657 256 99858 22.655976236379 9990.968617356544 525 0.099999999998545 0.16152930931912 52.715362137492 5.3017227798891
135	2397677 2777 257 99825 22.823334843402 9987.847413494712 94 1 1 94 94
136	2400454 2429 269 98109 23.627137632438 9832.403418268309 82 1 1 82 82
137	2402883 21799 272 99864 23.727137632438 9991.300229497653 483 0.099999999998545 0.16534956748501 48.415576082368 4.8589049495792
138	2424682 12061 273 99513 23.737309924295 9957.872701764933 406 1 1 406 406
139	2436743 23700 276 99516 23.837309924295 9957.972701764933 525 0.099999999998545 0.19622675877417 52.934853953225 5.3740825690694
140	2460443 2656 281 99869 24.11831649029 9991.918063346884 90 1 1 90 90
141	2463099 11115 285 99945 24.630156904837 9998.728044113561 375 1 1 375 375
142	2474214 21438 290 99948 24.730156904837 9998.828044113561 476 0.099999999998545 0.17490158910368 47.728776626756 4.7942680930845
143	2495652 2872 301 98845 27.049750240808 9902.598536353605 97 1 1 97 97
144	2498524 2809 309 98721 28.348704517473 9892.622190641887 95 1 1 95 95
145	2501333 21829 312 99392 28.448704517473 9944.652352569464 484 0.099999999998545 0.1655061288111 48.544017508744 4.8770579514071
146	2523162 11655 321 99743 29.033848991076 9981.895403971032 393 1 1 393 393
147	2534817 21518 324 99748 29.133848991076 9981.995403971032 478 0.099999999998545 0.14996640227946 47.89539410539 4.8036391386437
148	2556335 2929 333 95205 29.632501835933 9521.604123567959 99 1 1 99 99
149	2559264 2898 335 99913 29.69814433919 9995.546535264133 98 1 1 98 98
150	2562162 11414 381 99901 33.931809311181 9994.398231895596 384 1 1 384 384
151	2573576 12427 397 99925 36.645260577018 9997.850736889837 419 1 1 419 419
152	2586003 22845 400 99928 36.745260577018 9997.950736889837 507 0.099999999998545 0.18966396026462 50.882894745293 5.1212344486731
153	2608848 3575 421 99919 39.355121983809 9996.201016671951 121 1 1 121 121
154	2612423 11536 437 99389 39.909488265527 9944.552352569464 389 1 1 389 389
155	2623959 3155 447 98645 41.426967190208 9885.347321229137 106 1 1 106 106
156	2627114 11588 465 99815 42.625305121081 9987.602127316908 390 1 1 390 390
157	2638702 11678 509 99601 44.688616925188 9968.098654266964 394 1 1 394 394
158	2650380 22492 512 99610 44.788616925188 9968.198654266964 499 0.099999999998545 0.2333392125729 50.422712846509 5.1359495235791
159	2672872 2905 517 98223 45.32373084527 9843.561223854407 98 1 1 98 98
160	2675777 21556 520 99588 45.42373084527 9967.663664546412 478 0.099999999998545 0.14463815763401 47.847159293787 4.7914307800017
161	2697333 12666 553 99813 48.906363030484 9987.562962895333 427 1 1 427 427
162	2709999 23461 556 99818 49.006363030484 9987.662962895333 520 0.099999999998545 0.18283899022481 52.188411566296 5.2505477618365
163	2733460 3295 589 99127 55.202358072959 9925.434937028174 111 1 1 111 111
164	2736755 3260 603 98489 58.678927428398 9872.501405278245 110 1 1 110 110
165	2740015 3232 613 99909 58.954124358242 9995.33323972673 109 1 1 109 109
166	2743247 12400 625 99853 59.377546940754 9990.868617356544 418 1 1 418 418
167	2755647 2792 645 99349 60.969877018081 9941.312320315941 94 1 1 94 94
168	2758439 2757 669 99157 65.075737326158 9926.569356570938 93 1 1 93 93
169	2761196 12594 681 99501 66.718140613365 9957.172700911872 424 1 1 424 424
170	2773790 11272 723 99581 72.505376243033 9967.563664546412 380 1 1 380 380
171	2785062 2909 729 99341 72.724427832817 9941.070689071078 98 1 1 98 98
172	2787971 22970 732 99840 72.824427832817 9989.406559820826 509 0.099999999998545 0.19040525778655 51.279667216961 5.1912511729259
173	2810941 11911 743 99861 73.926598566139 9991.200229497653 401 1 1 401 401
174	2822852 3189 761 97027 75.153088912136 9717.200922519463 108 1 1 108 108
175	2826041 12194 773 99837 76.116470035259 9989.306559820826 411 1 1 411 411
176	2838235 3215 811 98531 79.115413041044 9875.593050820926 108 1 1 108 108
177	2841450 3534 845 98813 80.576084091528 9900.823619464476 119 1 1 119 119
178	2844984 3117 937 95305 91.544643226143 9534.621454817735 105 1 1 105 105
179	2848101 3187 953 99437 93.016396060183 9950.033446603781 107 1 1 107 107