file 5949785 1767629715                                         
version 3
run Lognormal-53-20260105-17:15:15-28123
attr configname Lognormal
attr datetime 20260105-17:15:15
attr datetimef 20260105-171515
attr experiment Lognormal
attr inifile omnetpp.ini
attr iterationvars "$N=100, $p=0.3"
attr iterationvarsd N=100/p=0.3
attr iterationvarsf N=100,p=0.3-
attr measurement "$N=100, $p=0.3"
attr network progetto.DatabaseNetwork
attr processid 28123
attr repetition 3
attr replication #3
attr resultdir results
attr runnumber 53
attr seedset 3
itervar N 100
itervar p 0.3
config description "Lognormal distribution (hotspots) - varia N e p"
config *.user[*].tableDistribution "\"lognormal\""
config *.user[*].lognormalM 1.5
config *.user[*].lognormalS 1.0
config *.numUsers 100
config *.user[*].readProbability 0.3
config network progetto.DatabaseNetwork
config sim-time-limit 10000s
config cpu-time-limit 3600s
config repeat 5
config seed-set 3
config output-vector-file "results/Lognormal-$N=100, $p=0.3-3.vec"
config output-scalar-file "results/Lognormal-$N=100, $p=0.3-3.sca"
config result-dir results
config **.vector-recording true
config **.scalar-recording true
config *.numTables 20
config *.user[*].lambda 0.05
config *.user[*].serviceTime 0.1s

vector 0 DatabaseNetwork.user[0] AccessInterval ETV
vector 1 DatabaseNetwork.user[1] AccessInterval ETV
vector 2 DatabaseNetwork.user[2] AccessInterval ETV
vector 3 DatabaseNetwork.user[3] AccessInterval ETV
vector 4 DatabaseNetwork.user[4] AccessInterval ETV
vector 5 DatabaseNetwork.user[5] AccessInterval ETV
vector 6 DatabaseNetwork.user[6] AccessInterval ETV
vector 7 DatabaseNetwork.user[7] AccessInterval ETV
vector 8 DatabaseNetwork.user[8] AccessInterval ETV
vector 9 DatabaseNetwork.user[9] AccessInterval ETV
vector 10 DatabaseNetwork.user[10] AccessInterval ETV
vector 11 DatabaseNetwork.user[11] AccessInterval ETV
vector 12 DatabaseNetwork.user[12] AccessInterval ETV
vector 13 DatabaseNetwork.user[13] AccessInterval ETV
vector 14 DatabaseNetwork.user[14] AccessInterval ETV
vector 15 DatabaseNetwork.user[15] AccessInterval ETV
vector 16 DatabaseNetwork.user[16] AccessInterval ETV
vector 17 DatabaseNetwork.user[17] AccessInterval ETV
vector 18 DatabaseNetwork.user[18] AccessInterval ETV
vector 19 DatabaseNetwork.user[19] AccessInterval ETV
vector 20 DatabaseNetwork.user[20] AccessInterval ETV
vector 21 DatabaseNetwork.user[21] AccessInterval ETV
vector 22 DatabaseNetwork.user[22] AccessInterval ETV
vector 23 DatabaseNetwork.user[23] AccessInterval ETV
vector 24 DatabaseNetwork.user[24] AccessInterval ETV
vector 25 DatabaseNetwork.user[25] AccessInterval ETV
vector 26 DatabaseNetwork.user[26] AccessInterval ETV
vector 27 DatabaseNetwork.user[27] AccessInterval ETV
vector 28 DatabaseNetwork.user[28] AccessInterval ETV
vector 29 DatabaseNetwork.user[29] AccessInterval ETV
vector 30 DatabaseNetwork.user[30] AccessInterval ETV
vector 31 DatabaseNetwork.user[31] AccessInterval ETV
vector 32 DatabaseNetwork.user[32] AccessInterval ETV
vector 33 DatabaseNetwork.user[33] AccessInterval ETV
vector 34 DatabaseNetwork.user[34] AccessInterval ETV
vector 35 DatabaseNetwork.user[35] AccessInterval ETV
vector 36 DatabaseNetwork.user[36] AccessInterval ETV
vector 37 DatabaseNetwork.user[37] AccessInterval ETV
vector 38 DatabaseNetwork.user[38] AccessInterval ETV
vector 39 DatabaseNetwork.user[39] AccessInterval ETV
vector 40 DatabaseNetwork.user[40] AccessInterval ETV
vector 41 DatabaseNetwork.user[41] AccessInterval ETV
vector 42 DatabaseNetwork.user[42] AccessInterval ETV
vector 43 DatabaseNetwork.user[43] AccessInterval ETV
vector 44 DatabaseNetwork.user[44] AccessInterval ETV
vector 45 DatabaseNetwork.user[45] AccessInterval ETV
vector 46 DatabaseNetwork.user[46] AccessInterval ETV
vector 47 DatabaseNetwork.user[47] AccessInterval ETV
vector 48 DatabaseNetwork.user[48] AccessInterval ETV
vector 49 DatabaseNetwork.user[49] AccessInterval ETV
vector 50 DatabaseNetwork.user[50] AccessInterval ETV
vector 51 DatabaseNetwork.user[51] AccessInterval ETV
vector 52 DatabaseNetwork.user[52] AccessInterval ETV
vector 53 DatabaseNetwork.user[53] AccessInterval ETV
vector 54 DatabaseNetwork.user[54] AccessInterval ETV
vector 55 DatabaseNetwork.user[55] AccessInterval ETV
vector 56 DatabaseNetwork.user[56] AccessInterval ETV
vector 57 DatabaseNetwork.user[57] AccessInterval ETV
vector 58 DatabaseNetwork.user[58] AccessInterval ETV
vector 59 DatabaseNetwork.user[59] AccessInterval ETV
vector 60 DatabaseNetwork.user[60] AccessInterval ETV
vector 61 DatabaseNetwork.user[61] AccessInterval ETV
vector 62 DatabaseNetwork.user[62] AccessInterval ETV
vector 63 DatabaseNetwork.user[63] AccessInterval ETV
vector 64 DatabaseNetwork.user[64] AccessInterval ETV
vector 65 DatabaseNetwork.user[65] AccessInterval ETV
vector 66 DatabaseNetwork.user[66] AccessInterval ETV
vector 67 DatabaseNetwork.user[67] AccessInterval ETV
vector 68 DatabaseNetwork.user[68] AccessInterval ETV
vector 69 DatabaseNetwork.user[69] AccessInterval ETV
vector 70 DatabaseNetwork.user[70] AccessInterval ETV
vector 71 DatabaseNetwork.user[71] AccessInterval ETV
vector 72 DatabaseNetwork.user[72] AccessInterval ETV
vector 73 DatabaseNetwork.user[73] AccessInterval ETV
vector 74 DatabaseNetwork.user[74] AccessInterval ETV
vector 75 DatabaseNetwork.user[75] AccessInterval ETV
vector 76 DatabaseNetwork.user[76] AccessInterval ETV
vector 77 DatabaseNetwork.user[77] AccessInterval ETV
vector 78 DatabaseNetwork.user[78] AccessInterval ETV
vector 79 DatabaseNetwork.user[79] AccessInterval ETV
vector 80 DatabaseNetwork.user[80] AccessInterval ETV
vector 81 DatabaseNetwork.user[81] AccessInterval ETV
vector 82 DatabaseNetwork.user[82] AccessInterval ETV
vector 83 DatabaseNetwork.user[83] AccessInterval ETV
vector 84 DatabaseNetwork.user[84] AccessInterval ETV
vector 85 DatabaseNetwork.user[85] AccessInterval ETV
vector 86 DatabaseNetwork.user[86] AccessInterval ETV
vector 87 DatabaseNetwork.user[87] AccessInterval ETV
vector 88 DatabaseNetwork.user[88] AccessInterval ETV
vector 89 DatabaseNetwork.user[89] AccessInterval ETV
vector 90 DatabaseNetwork.user[90] AccessInterval ETV
vector 91 DatabaseNetwork.user[91] AccessInterval ETV
vector 92 DatabaseNetwork.user[92] AccessInterval ETV
vector 93 DatabaseNetwork.user[93] AccessInterval ETV
vector 94 DatabaseNetwork.user[94] AccessInterval ETV
vector 95 DatabaseNetwork.user[95] AccessInterval ETV
vector 96 DatabaseNetwork.user[96] AccessInterval ETV
vector 97 DatabaseNetwork.user[97] AccessInterval ETV
vector 98 DatabaseNetwork.user[98] AccessInterval ETV
vector 99 DatabaseNetwork.user[99] AccessInterval ETV
vector 100 DatabaseNetwork.user[11] ReadAccesses ETV
vector 101 DatabaseNetwork.user[59] ReadAccesses ETV
vector 102 DatabaseNetwork.user[77] WriteAccesses ETV
vector 103 DatabaseNetwork.user[11] WaitTime ETV
vector 104 DatabaseNetwork.user[32] WriteAccesses ETV
vector 105 DatabaseNetwork.user[59] WaitTime ETV
vector 106 DatabaseNetwork.user[77] WaitTime ETV
vector 107 DatabaseNetwork.user[32] WaitTime ETV
vector 108 DatabaseNetwork.user[20] WriteAccesses ETV
vector 109 DatabaseNetwork.user[20] WaitTime ETV
vector 110 DatabaseNetwork.user[13] WriteAccesses ETV
vector 111 DatabaseNetwork.user[13] WaitTime ETV
vector 112 DatabaseNetwork.user[16] WriteAccesses ETV
vector 113 DatabaseNetwork.user[16] WaitTime ETV
vector 114 DatabaseNetwork.user[1] WriteAccesses ETV
vector 115 DatabaseNetwork.user[99] ReadAccesses ETV
vector 116 DatabaseNetwork.user[1] WaitTime ETV
vector 117 DatabaseNetwork.user[99] WaitTime ETV
vector 118 DatabaseNetwork.user[70] WriteAccesses ETV
vector 119 DatabaseNetwork.user[17] WriteAccesses ETV
vector 120 DatabaseNetwork.user[70] WaitTime ETV
vector 121 DatabaseNetwork.user[17] WaitTime ETV
vector 122 DatabaseNetwork.user[70] ReadAccesses ETV
vector 123 DatabaseNetwork.user[5] ReadAccesses ETV
vector 124 DatabaseNetwork.user[12] WriteAccesses ETV
vector 125 DatabaseNetwork.user[5] WaitTime ETV
vector 126 DatabaseNetwork.user[12] WaitTime ETV
vector 127 DatabaseNetwork.user[61] WriteAccesses ETV
vector 128 DatabaseNetwork.user[21] WriteAccesses ETV
vector 129 DatabaseNetwork.user[61] WaitTime ETV
vector 130 DatabaseNetwork.user[21] WaitTime ETV
vector 131 DatabaseNetwork.user[46] ReadAccesses ETV
vector 132 DatabaseNetwork.user[46] WaitTime ETV
vector 133 DatabaseNetwork.user[87] WriteAccesses ETV
vector 134 DatabaseNetwork.user[14] WriteAccesses ETV
vector 135 DatabaseNetwork.user[87] WaitTime ETV
vector 136 DatabaseNetwork.user[14] WaitTime ETV
vector 137 DatabaseNetwork.user[25] WriteAccesses ETV
vector 138 DatabaseNetwork.user[25] WaitTime ETV
vector 139 DatabaseNetwork.user[54] WriteAccesses ETV
vector 140 DatabaseNetwork.user[78] ReadAccesses ETV
vector 141 DatabaseNetwork.user[54] WaitTime ETV
vector 142 DatabaseNetwork.user[78] WaitTime ETV
vector 143 DatabaseNetwork.user[15] WriteAccesses ETV
vector 144 DatabaseNetwork.user[15] WaitTime ETV
vector 145 DatabaseNetwork.user[53] WriteAccesses ETV
vector 146 DatabaseNetwork.user[36] WriteAccesses ETV
vector 147 DatabaseNetwork.user[53] WaitTime ETV
vector 148 DatabaseNetwork.user[36] WaitTime ETV
vector 149 DatabaseNetwork.user[84] WriteAccesses ETV
vector 150 DatabaseNetwork.user[84] WaitTime ETV
vector 151 DatabaseNetwork.user[45] ReadAccesses ETV
vector 152 DatabaseNetwork.user[96] WriteAccesses ETV
vector 153 DatabaseNetwork.user[26] ReadAccesses ETV
vector 154 DatabaseNetwork.user[45] WaitTime ETV
vector 155 DatabaseNetwork.user[96] WaitTime ETV
vector 156 DatabaseNetwork.user[26] WaitTime ETV
vector 157 DatabaseNetwork.user[94] ReadAccesses ETV
vector 158 DatabaseNetwork.user[40] WriteAccesses ETV
vector 159 DatabaseNetwork.user[94] WaitTime ETV
vector 160 DatabaseNetwork.user[40] WaitTime ETV
vector 161 DatabaseNetwork.user[4] WriteAccesses ETV
vector 162 DatabaseNetwork.user[86] WriteAccesses ETV
vector 163 DatabaseNetwork.user[4] WaitTime ETV
vector 164 DatabaseNetwork.user[86] WaitTime ETV
vector 165 DatabaseNetwork.user[41] WriteAccesses ETV
vector 166 DatabaseNetwork.user[52] ReadAccesses ETV
vector 167 DatabaseNetwork.user[41] WaitTime ETV
vector 168 DatabaseNetwork.user[52] WaitTime ETV
vector 169 DatabaseNetwork.user[79] WriteAccesses ETV
vector 170 DatabaseNetwork.user[79] WaitTime ETV
vector 171 DatabaseNetwork.user[63] WriteAccesses ETV
vector 172 DatabaseNetwork.user[63] WaitTime ETV
vector 173 DatabaseNetwork.user[20] ReadAccesses ETV
vector 174 DatabaseNetwork.user[27] WriteAccesses ETV
vector 175 DatabaseNetwork.user[27] WaitTime ETV
vector 176 DatabaseNetwork.user[76] ReadAccesses ETV
vector 177 DatabaseNetwork.user[76] WaitTime ETV
vector 178 DatabaseNetwork.user[96] ReadAccesses ETV
vector 179 DatabaseNetwork.user[97] ReadAccesses ETV
vector 180 DatabaseNetwork.user[97] WaitTime ETV
vector 181 DatabaseNetwork.user[68] WriteAccesses ETV
vector 182 DatabaseNetwork.user[68] WaitTime ETV
vector 183 DatabaseNetwork.user[12] ReadAccesses ETV
vector 184 DatabaseNetwork.user[56] ReadAccesses ETV
vector 185 DatabaseNetwork.user[56] WaitTime ETV
vector 186 DatabaseNetwork.user[52] WriteAccesses ETV
vector 187 DatabaseNetwork.user[67] WriteAccesses ETV
vector 188 DatabaseNetwork.user[67] WaitTime ETV
vector 189 DatabaseNetwork.user[37] ReadAccesses ETV
vector 190 DatabaseNetwork.user[37] WaitTime ETV
vector 191 DatabaseNetwork.user[80] WriteAccesses ETV
vector 192 DatabaseNetwork.user[80] WaitTime ETV
vector 193 DatabaseNetwork.user[71] WriteAccesses ETV
vector 194 DatabaseNetwork.user[38] WriteAccesses ETV
vector 195 DatabaseNetwork.user[71] WaitTime ETV
vector 196 DatabaseNetwork.user[38] WaitTime ETV
vector 197 DatabaseNetwork.user[69] ReadAccesses ETV
vector 198 DatabaseNetwork.user[97] WriteAccesses ETV
vector 199 DatabaseNetwork.user[69] WaitTime ETV
vector 200 DatabaseNetwork.user[9] WriteAccesses ETV
vector 201 DatabaseNetwork.user[9] WaitTime ETV
vector 202 DatabaseNetwork.user[44] ReadAccesses ETV
vector 203 DatabaseNetwork.user[18] WriteAccesses ETV
vector 204 DatabaseNetwork.user[44] WaitTime ETV
vector 205 DatabaseNetwork.user[18] WaitTime ETV
vector 206 DatabaseNetwork.user[23] WriteAccesses ETV
vector 207 DatabaseNetwork.user[47] WriteAccesses ETV
vector 208 DatabaseNetwork.user[98] ReadAccesses ETV
vector 209 DatabaseNetwork.user[23] WaitTime ETV
vector 210 DatabaseNetwork.user[22] WriteAccesses ETV
vector 211 DatabaseNetwork.user[47] WaitTime ETV
vector 212 DatabaseNetwork.user[98] WaitTime ETV
vector 213 DatabaseNetwork.user[88] ReadAccesses ETV
vector 214 DatabaseNetwork.user[22] WaitTime ETV
vector 215 DatabaseNetwork.user[88] WaitTime ETV
vector 216 DatabaseNetwork.user[79] ReadAccesses ETV
vector 217 DatabaseNetwork.user[84] ReadAccesses ETV
vector 218 DatabaseNetwork.user[94] WriteAccesses ETV
vector 219 DatabaseNetwork.user[82] ReadAccesses ETV
vector 220 DatabaseNetwork.user[80] ReadAccesses ETV
vector 221 DatabaseNetwork.user[82] WaitTime ETV
vector 222 DatabaseNetwork.user[29] WriteAccesses ETV
vector 223 DatabaseNetwork.user[29] WaitTime ETV
vector 224 DatabaseNetwork.user[13] ReadAccesses ETV
vector 225 DatabaseNetwork.user[6] WriteAccesses ETV
vector 226 DatabaseNetwork.user[6] WaitTime ETV
vector 227 DatabaseNetwork.user[45] WriteAccesses ETV
vector 228 DatabaseNetwork.user[48] ReadAccesses ETV
vector 229 DatabaseNetwork.user[48] WaitTime ETV
vector 230 DatabaseNetwork.user[0] WriteAccesses ETV
vector 231 DatabaseNetwork.user[39] ReadAccesses ETV
vector 232 DatabaseNetwork.user[0] WaitTime ETV
vector 233 DatabaseNetwork.user[39] WaitTime ETV
vector 234 DatabaseNetwork.user[74] WriteAccesses ETV
vector 235 DatabaseNetwork.user[34] WriteAccesses ETV
vector 236 DatabaseNetwork.user[74] WaitTime ETV
vector 237 DatabaseNetwork.user[34] WaitTime ETV
vector 238 DatabaseNetwork.user[81] ReadAccesses ETV
vector 239 DatabaseNetwork.user[81] WaitTime ETV
vector 240 DatabaseNetwork.user[46] WriteAccesses ETV
vector 241 DatabaseNetwork.user[7] WriteAccesses ETV
vector 242 DatabaseNetwork.user[7] WaitTime ETV
vector 243 DatabaseNetwork.user[98] WriteAccesses ETV
vector 244 DatabaseNetwork.user[36] ReadAccesses ETV
vector 245 DatabaseNetwork.user[92] WriteAccesses ETV
vector 246 DatabaseNetwork.user[43] WriteAccesses ETV
vector 247 DatabaseNetwork.user[92] WaitTime ETV
vector 248 DatabaseNetwork.user[43] WaitTime ETV
vector 249 DatabaseNetwork.user[30] WriteAccesses ETV
vector 250 DatabaseNetwork.user[30] WaitTime ETV
vector 251 DatabaseNetwork.user[85] WriteAccesses ETV
vector 252 DatabaseNetwork.user[82] WriteAccesses ETV
vector 253 DatabaseNetwork.user[85] WaitTime ETV
vector 254 DatabaseNetwork.user[48] WriteAccesses ETV
vector 255 DatabaseNetwork.user[24] WriteAccesses ETV
vector 256 DatabaseNetwork.user[24] WaitTime ETV
vector 257 DatabaseNetwork.user[72] ReadAccesses ETV
vector 258 DatabaseNetwork.user[89] WriteAccesses ETV
vector 259 DatabaseNetwork.user[72] WaitTime ETV
vector 260 DatabaseNetwork.user[89] WaitTime ETV
vector 261 DatabaseNetwork.user[40] ReadAccesses ETV
vector 262 DatabaseNetwork.user[91] WriteAccesses ETV
vector 263 DatabaseNetwork.user[91] WaitTime ETV
vector 264 DatabaseNetwork.user[62] WriteAccesses ETV
vector 265 DatabaseNetwork.user[62] WaitTime ETV
vector 266 DatabaseNetwork.user[28] WriteAccesses ETV
vector 267 DatabaseNetwork.user[28] WaitTime ETV
vector 268 DatabaseNetwork.user[41] ReadAccesses ETV
vector 269 DatabaseNetwork.user[56] WriteAccesses ETV
vector 270 DatabaseNetwork.user[42] ReadAccesses ETV
vector 271 DatabaseNetwork.user[42] WaitTime ETV
vector 272 DatabaseNetwork.user[19] WriteAccesses ETV
vector 273 DatabaseNetwork.user[19] WaitTime ETV
vector 274 DatabaseNetwork.user[59] WriteAccesses ETV
vector 275 DatabaseNetwork.user[2] ReadAccesses ETV
vector 276 DatabaseNetwork.user[2] WaitTime ETV
vector 277 DatabaseNetwork.user[61] ReadAccesses ETV
vector 278 DatabaseNetwork.user[75] ReadAccesses ETV
vector 279 DatabaseNetwork.user[75] WaitTime ETV
vector 280 DatabaseNetwork.user[88] WriteAccesses ETV
vector 281 DatabaseNetwork.user[57] WriteAccesses ETV
vector 282 DatabaseNetwork.user[57] WaitTime ETV
vector 283 DatabaseNetwork.user[1] ReadAccesses ETV
vector 284 DatabaseNetwork.user[5] WriteAccesses ETV
vector 285 DatabaseNetwork.user[83] WriteAccesses ETV
vector 286 DatabaseNetwork.user[83] WaitTime ETV
vector 287 DatabaseNetwork.user[49] WriteAccesses ETV
vector 288 DatabaseNetwork.user[49] WaitTime ETV
vector 289 DatabaseNetwork.user[75] WriteAccesses ETV
vector 290 DatabaseNetwork.user[33] WriteAccesses ETV
vector 291 DatabaseNetwork.user[53] ReadAccesses ETV
vector 292 DatabaseNetwork.user[33] WaitTime ETV
vector 293 DatabaseNetwork.user[68] ReadAccesses ETV
vector 294 DatabaseNetwork.user[50] WriteAccesses ETV
vector 295 DatabaseNetwork.user[50] WaitTime ETV
vector 296 DatabaseNetwork.user[73] WriteAccesses ETV
vector 297 DatabaseNetwork.user[73] WaitTime ETV
vector 298 DatabaseNetwork.user[0] ReadAccesses ETV
vector 299 DatabaseNetwork.user[81] WriteAccesses ETV
vector 300 DatabaseNetwork.user[76] WriteAccesses ETV
vector 301 DatabaseNetwork.user[43] ReadAccesses ETV
vector 302 DatabaseNetwork.user[65] WriteAccesses ETV
vector 303 DatabaseNetwork.user[65] WaitTime ETV
vector 304 DatabaseNetwork.user[95] WriteAccesses ETV
vector 305 DatabaseNetwork.user[95] WaitTime ETV
vector 306 DatabaseNetwork.user[51] WriteAccesses ETV
vector 307 DatabaseNetwork.user[51] WaitTime ETV
vector 308 DatabaseNetwork.user[3] ReadAccesses ETV
vector 309 DatabaseNetwork.user[3] WaitTime ETV
vector 310 DatabaseNetwork.user[87] ReadAccesses ETV
vector 311 DatabaseNetwork.user[66] ReadAccesses ETV
vector 312 DatabaseNetwork.user[66] WaitTime ETV
vector 313 DatabaseNetwork.user[51] ReadAccesses ETV
vector 314 DatabaseNetwork.user[2] WriteAccesses ETV
vector 315 DatabaseNetwork.user[90] WriteAccesses ETV
vector 316 DatabaseNetwork.user[90] WaitTime ETV
vector 317 DatabaseNetwork.user[77] ReadAccesses ETV
vector 318 DatabaseNetwork.user[78] WriteAccesses ETV
vector 319 DatabaseNetwork.user[19] ReadAccesses ETV
vector 320 DatabaseNetwork.user[93] WriteAccesses ETV
vector 321 DatabaseNetwork.user[93] WaitTime ETV
vector 322 DatabaseNetwork.user[33] ReadAccesses ETV
vector 323 DatabaseNetwork.user[27] ReadAccesses ETV
vector 324 DatabaseNetwork.user[4] ReadAccesses ETV
vector 325 DatabaseNetwork.user[72] WriteAccesses ETV
vector 326 DatabaseNetwork.user[66] WriteAccesses ETV
vector 327 DatabaseNetwork.user[99] WriteAccesses ETV
vector 328 DatabaseNetwork.user[8] ReadAccesses ETV
vector 329 DatabaseNetwork.user[55] ReadAccesses ETV
vector 330 DatabaseNetwork.user[8] WaitTime ETV
vector 331 DatabaseNetwork.user[55] WaitTime ETV
vector 332 DatabaseNetwork.user[22] ReadAccesses ETV
vector 333 DatabaseNetwork.user[10] WriteAccesses ETV
vector 334 DatabaseNetwork.user[10] WaitTime ETV
vector 335 DatabaseNetwork.user[18] ReadAccesses ETV
vector 336 DatabaseNetwork.user[90] ReadAccesses ETV
vector 337 DatabaseNetwork.user[64] ReadAccesses ETV
vector 338 DatabaseNetwork.user[6] ReadAccesses ETV
vector 339 DatabaseNetwork.user[64] WaitTime ETV
vector 340 DatabaseNetwork.user[39] WriteAccesses ETV
vector 341 DatabaseNetwork.user[31] WriteAccesses ETV
vector 342 DatabaseNetwork.user[31] WaitTime ETV
vector 343 DatabaseNetwork.user[15] ReadAccesses ETV
vector 344 DatabaseNetwork.user[23] ReadAccesses ETV
vector 345 DatabaseNetwork.user[85] ReadAccesses ETV
vector 346 DatabaseNetwork.user[83] ReadAccesses ETV
vector 347 DatabaseNetwork.user[30] ReadAccesses ETV
vector 348 DatabaseNetwork.user[9] ReadAccesses ETV
vector 349 DatabaseNetwork.user[11] WriteAccesses ETV
vector 350 DatabaseNetwork.user[71] ReadAccesses ETV
vector 351 DatabaseNetwork.user[58] WriteAccesses ETV
vector 352 DatabaseNetwork.user[58] WaitTime ETV
vector 353 DatabaseNetwork.user[21] ReadAccesses ETV
vector 354 DatabaseNetwork.user[55] WriteAccesses ETV
vector 355 DatabaseNetwork.user[44] WriteAccesses ETV
vector 356 DatabaseNetwork.user[62] ReadAccesses ETV
vector 357 DatabaseNetwork.user[32] ReadAccesses ETV
vector 358 DatabaseNetwork.user[89] ReadAccesses ETV
vector 359 DatabaseNetwork.user[25] ReadAccesses ETV
vector 360 DatabaseNetwork.user[69] WriteAccesses ETV
vector 361 DatabaseNetwork.user[3] WriteAccesses ETV
vector 362 DatabaseNetwork.user[64] WriteAccesses ETV
vector 363 DatabaseNetwork.user[10] ReadAccesses ETV
vector 364 DatabaseNetwork.user[35] WriteAccesses ETV
vector 365 DatabaseNetwork.user[35] WaitTime ETV
vector 366 DatabaseNetwork.user[57] ReadAccesses ETV
vector 367 DatabaseNetwork.user[16] ReadAccesses ETV
vector 368 DatabaseNetwork.user[60] WriteAccesses ETV
vector 369 DatabaseNetwork.user[60] WaitTime ETV
vector 370 DatabaseNetwork.user[7] ReadAccesses ETV
vector 371 DatabaseNetwork.user[14] ReadAccesses ETV
vector 372 DatabaseNetwork.user[37] WriteAccesses ETV
vector 373 DatabaseNetwork.user[8] WriteAccesses ETV
vector 374 DatabaseNetwork.user[17] ReadAccesses ETV
vector 375 DatabaseNetwork.user[54] ReadAccesses ETV
vector 376 DatabaseNetwork.user[95] ReadAccesses ETV
vector 377 DatabaseNetwork.user[91] ReadAccesses ETV
vector 378 DatabaseNetwork.user[50] ReadAccesses ETV
vector 379 DatabaseNetwork.user[92] ReadAccesses ETV
vector 380 DatabaseNetwork.user[73] ReadAccesses ETV
vector 381 DatabaseNetwork.user[65] ReadAccesses ETV
vector 382 DatabaseNetwork.user[42] WriteAccesses ETV
vector 383 DatabaseNetwork.user[35] ReadAccesses ETV
vector 384 DatabaseNetwork.user[74] ReadAccesses ETV
vector 385 DatabaseNetwork.user[31] ReadAccesses ETV
vector 386 DatabaseNetwork.user[86] ReadAccesses ETV
vector 387 DatabaseNetwork.user[67] ReadAccesses ETV
vector 388 DatabaseNetwork.user[63] ReadAccesses ETV
vector 389 DatabaseNetwork.user[34] ReadAccesses ETV
vector 390 DatabaseNetwork.user[60] ReadAccesses ETV
vector 391 DatabaseNetwork.user[28] ReadAccesses ETV
vector 392 DatabaseNetwork.user[29] ReadAccesses ETV
vector 393 DatabaseNetwork.user[93] ReadAccesses ETV
vector 394 DatabaseNetwork.user[38] ReadAccesses ETV
vector 395 DatabaseNetwork.user[24] ReadAccesses ETV
vector 396 DatabaseNetwork.user[26] WriteAccesses ETV
vector 397 DatabaseNetwork.user[49] ReadAccesses ETV
vector 398 DatabaseNetwork.user[58] ReadAccesses ETV
vector 399 DatabaseNetwork.user[47] ReadAccesses ETV
0	22141 21896 0 199169 0 9991.970482006929 521 0.08688522029067 153.37069464754 10104.284291826 394051.55361838
1	44037 20186 0 197237 0 9887.655790388477 480 0.0048824538047472 125.00485965164 10000.60241647 400709.95952761
2	64223 20209 0 199227 0 9995.22563044489 480 0.077415242991367 163.61090770073 10077.960451596 440110.27641644
3	84432 20392 0 199199 0 9993.430523285975 484 0.067237107260124 162.37519085757 10022.61108697 415451.22862505
4	104824 21057 0 199213 0 9994.564319355337 500 0.010119377042742 135.05717049347 10003.680624787 404895.7056342
5	125881 21390 0 199293 0 9997.937469381175 507 0.016808614106427 114.63419869189 10024.396267289 391605.19655363
6	147271 21741 0 197401 0 9897.798220007642 517 0.12466847711043 121.64173181532 10014.573334232 375113.08146633
7	169012 21457 0 198945 0 9980.792331396472 509 0.0059674967368126 127.57265151574 10055.918516615 377914.07348488
8	190469 21501 0 199265 0 9996.702457296285 510 0.061669213345647 110.51925631405 10041.569979199 377234.7417792
9	211970 20567 0 199205 0 9993.834099827487 489 0.0075351949433343 131.69102510961 10096.189456114 412017.44639743
10	232537 21597 0 199045 0 9986.779623466021 501 0.14350441116245 158.90400484138 10018.818312892 406739.29824962
11	254134 18598 0 198609 0 9961.649476511224 432 0.075040010008804 112.47692590654 10028.460841916 441065.25912517
12	272732 23255 0 198771 0 9971.713267269809 538 0.013962287278818 108.45982085934 10010.558171698 379132.62147722
13	295987 22709 0 198933 0 9979.926637570761 527 0.11560105378597 140.27623659135 10030.094634702 384679.51103061
14	318696 21386 0 199087 0 9988.527658036904 496 0.0058498638877042 136.47559165303 10004.780990985 380641.25769461
15	340082 23477 0 198785 0 9972.228786039552 544 0.058128661433519 111.7200041282 10005.400914457 363674.01036143
16	363559 20919 0 198241 0 9942.441871233974 485 0.053731071496975 126.92306121486 10006.813130204 389119.82698756
17	384478 21107 0 198085 0 9933.791666776655 490 0.031488101396124 122.36936031185 10002.714684858 407480.3577886
18	405585 21711 0 198685 0 9965.700498689591 504 0.014690963620483 110.40131931693 10024.178560587 383036.84471649
19	427296 19279 0 199041 0 9986.651158103776 447 0.079165194357839 137.36011817317 10018.286187497 458529.78232098
20	446575 22827 0 198697 0 9966.083862374894 529 0.050667435208287 152.89191863406 10090.621700303 410778.53288017
21	469402 21888 0 198871 0 9977.20919715579 507 0.04544331926604 116.01188920642 10021.83447213 377240.03481721
22	491290 20507 0 198947 0 9980.834100498973 476 0.019199840980563 146.79694935486 10001.631595823 409845.20675803
23	511797 19614 0 199071 0 9987.699024552108 455 0.029124224741501 150.30752244186 10020.998522883 431774.56792048
24	531411 22904 0 199215 0 9994.628007772594 531 0.0050564354896421 123.4242665188 10025.824111064 380669.84584693
25	554315 21939 0 199257 0 9996.242984754235 509 0.075964029559039 116.04734050355 10002.841274888 366904.09879053
26	576254 21658 0 199113 0 9989.800220041668 501 0.048929694255481 212.30725310803 10008.118902502 464408.30926794
27	597912 21258 0 199321 0 9998.792396743344 493 0.04912100926745 181.28793333033 10000.317095511 450281.25998864
28	619170 21616 0 199149 0 9991.596850171894 501 0.098306664147826 113.69278472183 10041.22898909 379955.2657503
29	640786 21404 0 199249 0 9996.000339076025 496 0.095902886894281 153.22089682958 10012.009318044 414912.05436011
30	662190 22126 0 199061 0 9987.541544619752 513 0.0027533559973869 134.2914276139 10008.32074844 377190.08265484
31	684316 21072 0 199275 0 9997.663033867742 488 0.028882816031499 137.72696478654 10012.679429552 397021.38502548
32	705388 21638 0 198549 0 9958.500318565324 501 0.013766154528716 106.20062344319 10003.280342082 375979.8567949
33	727026 20787 0 199329 0 9998.929157855306 481 0.056231435491487 137.45430424001 10002.894952973 424044.27037427
34	747813 21424 0 198901 0 9978.478131734421 497 0.055556480347871 127.24369983736 10012.247161108 404978.9848319
35	769237 21116 0 199339 0 9999.533654042847 489 0.028772103922786 115.88200848976 10028.362272472 394363.83654581
36	790353 18586 0 199099 0 9988.729231988562 430 0.044424190903061 138.12978636069 10003.913400239 438731.9141159
37	808939 23796 0 199049 0 9986.904840447725 551 0.0027957696543817 122.37643374244 10001.371891691 355780.63307647
38	832735 23656 0 199235 0 9995.629773203074 548 0.020119881147941 103.48018100726 10027.939770353 361922.38899493
39	856391 23478 0 198921 0 9979.577395433685 544 0.011003459353306 115.04163593096 10011.204582298 371290.32569251
40	879869 22434 0 198173 0 9938.833290945254 520 0.00046697059040808 112.42807522361 10005.778025124 393151.08434567
41	902303 23283 0 199341 0 9999.558521930358 540 0.03123353995891 107.98348543341 10065.969510479 362134.31000093
42	925586 21489 0 199269 0 9996.879267384444 497 0.0077491921802914 133.57974641829 10002.20631547 391044.8979437
43	947075 19568 0 198761 0 9971.229379704619 454 0.020650353417624 181.6943414051 10006.718022867 434868.11418266
44	966643 22802 0 199309 0 9998.533495302871 528 0.03217533225003 123.83692862131 10096.489476858 354474.77655851
45	989445 19355 0 198843 0 9975.41649144389 449 0.062718813129567 177.47634564356 10022.171282117 453519.27585317
46	1008800 23802 0 199029 0 9986.079289306886 553 0.042486307793095 128.30458645678 10070.699685432 367704.46878203
47	1032602 21543 0 198961 0 9981.649217339043 499 0.022544216256731 109.90375896523 10055.323708543 413287.92665864
48	1054145 22058 0 198881 0 9977.52635562381 511 0.046624469837513 134.95083561149 10023.251505994 394156.42922754
49	1076203 20193 0 197785 0 9917.828567590554 469 0.054746355053547 119.26923765602 10035.193304919 420562.95930031
50	1096396 21882 0 199233 0 9995.602481935676 507 0.03297950633144 164.76259320148 10021.509941306 416919.11240246
51	1118278 20605 0 199185 0 9992.708636624074 478 0.021562945756645 102.32264575874 10056.241354085 395020.99043983
52	1138883 21004 0 199315 0 9998.65334350477 488 0.23112586887596 114.29349776861 10000.564304454 396336.39600877
53	1159887 21860 0 198653 0 9964.546256132162 508 0.067357241646218 158.80657898298 10001.44624547 387595.12702987
54	1181747 20745 0 199153 0 9991.740207152039 481 0.017249113429252 137.64102196473 10026.984292976 420966.12783018
55	1202492 23654 0 199173 0 9992.131422942704 548 0.017880387181345 111.06076087089 10042.010960131 356108.28869991
56	1226146 21235 0 199311 0 9998.615567915748 492 0.24627841610036 138.11721940948 10010.13681932 401035.55811407
57	1247381 20246 0 199241 0 9995.773245315005 469 0.0079043553513396 152.79998524632 10025.575145797 415414.14501297
58	1267627 21734 0 199057 0 9987.463382718275 503 0.0060110677396255 122.64302078535 10011.10996583 390093.69868583
59	1289361 20965 0 197819 0 9920.536394210122 486 0.0076527119287389 130.46993518508 10010.616865114 414547.74816025
60	1310326 22618 0 198909 0 9978.727962966502 524 0.010865007772761 156.10003773726 10011.283013022 381439.47887761
61	1332944 23603 0 198801 0 9973.924720113061 547 0.013171286201851 102.20003452515 10004.897575152 358081.06365451
62	1356547 21744 0 198177 0 9939.173461452072 503 0.041390042684744 119.87675197747 10042.613299666 372559.18327291
63	1378291 19769 0 198153 0 9937.263398054394 458 0.042810917912202 133.52120270172 10055.616877306 462276.69984675
64	1398060 20856 0 198631 0 9962.238005135276 483 0.0055367991735179 107.35526896355 10018.018493208 407833.78461399
65	1418916 21794 0 199159 0 9991.814527274155 505 0.025699121029676 129.05276919547 10036.492697447 386127.15035312
66	1440710 22782 0 199277 0 9997.66850294809 528 0.0030677929717917 100.36604421628 10002.700262544 349230.42966089