file 2930157 1767628883                                         
version 3
run Lognormal-16-20260105-17:01:23-25149
attr configname Lognormal
attr datetime 20260105-17:01:23
attr datetimef 20260105-170123
attr experiment Lognormal
attr inifile omnetpp.ini
attr iterationvars "$N=50, $p=0.8"
attr iterationvarsd N=50/p=0.8
attr iterationvarsf N=50,p=0.8-
attr measurement "$N=50, $p=0.8"
attr network progetto.DatabaseNetwork
attr processid 25149
attr repetition 1
attr replication #1
attr resultdir results
attr runnumber 16
attr seedset 1
itervar N 50
itervar p 0.8
config description "Lognormal distribution (hotspots) - varia N e p"
config *.user[*].tableDistribution "\"lognormal\""
config *.user[*].lognormalM 1.5
config *.user[*].lognormalS 1.0
config *.numUsers 50
config *.user[*].readProbability 0.8
config network progetto.DatabaseNetwork
config sim-time-limit 10000s
config cpu-time-limit 3600s
config repeat 5
config seed-set 1
config output-vector-file "results/Lognormal-$N=50, $p=0.8-1.vec"
config output-scalar-file "results/Lognormal-$N=50, $p=0.8-1.sca"
config result-dir results
config **.vector-recording true
config **.scalar-recording true
config *.numTables 20
config *.user[*].lambda 0.05
config *.user[*].serviceTime 0.1s

vector 0 DatabaseNetwork.user[0] AccessInterval ETV
vector 1 DatabaseNetwork.user[1] AccessInterval ETV
vector 2 DatabaseNetwork.user[2] AccessInterval ETV
vector 3 DatabaseNetwork.user[3] AccessInterval ETV
vector 4 DatabaseNetwork.user[4] AccessInterval ETV
vector 5 DatabaseNetwork.user[5] AccessInterval ETV
vector 6 DatabaseNetwork.user[6] AccessInterval ETV
vector 7 DatabaseNetwork.user[7] AccessInterval ETV
vector 8 DatabaseNetwork.user[8] AccessInterval ETV
vector 9 DatabaseNetwork.user[9] AccessInterval ETV
vector 10 DatabaseNetwork.user[10] AccessInterval ETV
vector 11 DatabaseNetwork.user[11] AccessInterval ETV
vector 12 DatabaseNetwork.user[12] AccessInterval ETV
vector 13 DatabaseNetwork.user[13] AccessInterval ETV
vector 14 DatabaseNetwork.user[14] AccessInterval ETV
vector 15 DatabaseNetwork.user[15] AccessInterval ETV
vector 16 DatabaseNetwork.user[16] AccessInterval ETV
vector 17 DatabaseNetwork.user[17] AccessInterval ETV
vector 18 DatabaseNetwork.user[18] AccessInterval ETV
vector 19 DatabaseNetwork.user[19] AccessInterval ETV
vector 20 DatabaseNetwork.user[20] AccessInterval ETV
vector 21 DatabaseNetwork.user[21] AccessInterval ETV
vector 22 DatabaseNetwork.user[22] AccessInterval ETV
vector 23 DatabaseNetwork.user[23] AccessInterval ETV
vector 24 DatabaseNetwork.user[24] AccessInterval ETV
vector 25 DatabaseNetwork.user[25] AccessInterval ETV
vector 26 DatabaseNetwork.user[26] AccessInterval ETV
vector 27 DatabaseNetwork.user[27] AccessInterval ETV
vector 28 DatabaseNetwork.user[28] AccessInterval ETV
vector 29 DatabaseNetwork.user[29] AccessInterval ETV
vector 30 DatabaseNetwork.user[30] AccessInterval ETV
vector 31 DatabaseNetwork.user[31] AccessInterval ETV
vector 32 DatabaseNetwork.user[32] AccessInterval ETV
vector 33 DatabaseNetwork.user[33] AccessInterval ETV
vector 34 DatabaseNetwork.user[34] AccessInterval ETV
vector 35 DatabaseNetwork.user[35] AccessInterval ETV
vector 36 DatabaseNetwork.user[36] AccessInterval ETV
vector 37 DatabaseNetwork.user[37] AccessInterval ETV
vector 38 DatabaseNetwork.user[38] AccessInterval ETV
vector 39 DatabaseNetwork.user[39] AccessInterval ETV
vector 40 DatabaseNetwork.user[40] AccessInterval ETV
vector 41 DatabaseNetwork.user[41] AccessInterval ETV
vector 42 DatabaseNetwork.user[42] AccessInterval ETV
vector 43 DatabaseNetwork.user[43] AccessInterval ETV
vector 44 DatabaseNetwork.user[44] AccessInterval ETV
vector 45 DatabaseNetwork.user[45] AccessInterval ETV
vector 46 DatabaseNetwork.user[46] AccessInterval ETV
vector 47 DatabaseNetwork.user[47] AccessInterval ETV
vector 48 DatabaseNetwork.user[48] AccessInterval ETV
vector 49 DatabaseNetwork.user[49] AccessInterval ETV
vector 50 DatabaseNetwork.user[4] ReadAccesses ETV
vector 51 DatabaseNetwork.user[4] WaitTime ETV
vector 52 DatabaseNetwork.user[28] ReadAccesses ETV
vector 53 DatabaseNetwork.user[28] WaitTime ETV
vector 54 DatabaseNetwork.user[10] WriteAccesses ETV
vector 55 DatabaseNetwork.user[45] ReadAccesses ETV
vector 56 DatabaseNetwork.user[10] WaitTime ETV
vector 57 DatabaseNetwork.user[45] WaitTime ETV
vector 58 DatabaseNetwork.user[5] ReadAccesses ETV
vector 59 DatabaseNetwork.user[5] WaitTime ETV
vector 60 DatabaseNetwork.user[36] ReadAccesses ETV
vector 61 DatabaseNetwork.user[36] WaitTime ETV
vector 62 DatabaseNetwork.user[8] WriteAccesses ETV
vector 63 DatabaseNetwork.user[8] WaitTime ETV
vector 64 DatabaseNetwork.user[12] ReadAccesses ETV
vector 65 DatabaseNetwork.user[12] WaitTime ETV
vector 66 DatabaseNetwork.user[38] WriteAccesses ETV
vector 67 DatabaseNetwork.user[38] WaitTime ETV
vector 68 DatabaseNetwork.user[24] ReadAccesses ETV
vector 69 DatabaseNetwork.user[24] WaitTime ETV
vector 70 DatabaseNetwork.user[27] ReadAccesses ETV
vector 71 DatabaseNetwork.user[27] WaitTime ETV
vector 72 DatabaseNetwork.user[9] ReadAccesses ETV
vector 73 DatabaseNetwork.user[9] WaitTime ETV
vector 74 DatabaseNetwork.user[38] ReadAccesses ETV
vector 75 DatabaseNetwork.user[6] ReadAccesses ETV
vector 76 DatabaseNetwork.user[6] WaitTime ETV
vector 77 DatabaseNetwork.user[21] ReadAccesses ETV
vector 78 DatabaseNetwork.user[44] ReadAccesses ETV
vector 79 DatabaseNetwork.user[21] WaitTime ETV
vector 80 DatabaseNetwork.user[44] WaitTime ETV
vector 81 DatabaseNetwork.user[14] WriteAccesses ETV
vector 82 DatabaseNetwork.user[14] WaitTime ETV
vector 83 DatabaseNetwork.user[45] WriteAccesses ETV
vector 84 DatabaseNetwork.user[14] ReadAccesses ETV
vector 85 DatabaseNetwork.user[13] ReadAccesses ETV
vector 86 DatabaseNetwork.user[13] WaitTime ETV
vector 87 DatabaseNetwork.user[11] WriteAccesses ETV
vector 88 DatabaseNetwork.user[16] ReadAccesses ETV
vector 89 DatabaseNetwork.user[11] WaitTime ETV
vector 90 DatabaseNetwork.user[16] WaitTime ETV
vector 91 DatabaseNetwork.user[44] WriteAccesses ETV
vector 92 DatabaseNetwork.user[0] ReadAccesses ETV
vector 93 DatabaseNetwork.user[32] ReadAccesses ETV
vector 94 DatabaseNetwork.user[20] ReadAccesses ETV
vector 95 DatabaseNetwork.user[0] WaitTime ETV
vector 96 DatabaseNetwork.user[32] WaitTime ETV
vector 97 DatabaseNetwork.user[20] WaitTime ETV
vector 98 DatabaseNetwork.user[35] ReadAccesses ETV
vector 99 DatabaseNetwork.user[35] WaitTime ETV
vector 100 DatabaseNetwork.user[25] ReadAccesses ETV
vector 101 DatabaseNetwork.user[25] WaitTime ETV
vector 102 DatabaseNetwork.user[33] ReadAccesses ETV
vector 103 DatabaseNetwork.user[33] WaitTime ETV
vector 104 DatabaseNetwork.user[10] ReadAccesses ETV
vector 105 DatabaseNetwork.user[27] WriteAccesses ETV
vector 106 DatabaseNetwork.user[47] ReadAccesses ETV
vector 107 DatabaseNetwork.user[47] WaitTime ETV
vector 108 DatabaseNetwork.user[23] ReadAccesses ETV
vector 109 DatabaseNetwork.user[23] WaitTime ETV
vector 110 DatabaseNetwork.user[29] WriteAccesses ETV
vector 111 DatabaseNetwork.user[29] WaitTime ETV
vector 112 DatabaseNetwork.user[18] WriteAccesses ETV
vector 113 DatabaseNetwork.user[18] WaitTime ETV
vector 114 DatabaseNetwork.user[34] ReadAccesses ETV
vector 115 DatabaseNetwork.user[34] WaitTime ETV
vector 116 DatabaseNetwork.user[11] ReadAccesses ETV
vector 117 DatabaseNetwork.user[0] WriteAccesses ETV
vector 118 DatabaseNetwork.user[15] ReadAccesses ETV
vector 119 DatabaseNetwork.user[30] ReadAccesses ETV
vector 120 DatabaseNetwork.user[15] WaitTime ETV
vector 121 DatabaseNetwork.user[30] WaitTime ETV
vector 122 DatabaseNetwork.user[22] ReadAccesses ETV
vector 123 DatabaseNetwork.user[12] WriteAccesses ETV
vector 124 DatabaseNetwork.user[22] WaitTime ETV
vector 125 DatabaseNetwork.user[46] WriteAccesses ETV
vector 126 DatabaseNetwork.user[46] WaitTime ETV
vector 127 DatabaseNetwork.user[8] ReadAccesses ETV
vector 128 DatabaseNetwork.user[41] ReadAccesses ETV
vector 129 DatabaseNetwork.user[41] WaitTime ETV
vector 130 DatabaseNetwork.user[2] ReadAccesses ETV
vector 131 DatabaseNetwork.user[2] WaitTime ETV
vector 132 DatabaseNetwork.user[30] WriteAccesses ETV
vector 133 DatabaseNetwork.user[39] ReadAccesses ETV
vector 134 DatabaseNetwork.user[39] WaitTime ETV
vector 135 DatabaseNetwork.user[40] ReadAccesses ETV
vector 136 DatabaseNetwork.user[40] WaitTime ETV
vector 137 DatabaseNetwork.user[43] ReadAccesses ETV
vector 138 DatabaseNetwork.user[43] WaitTime ETV
vector 139 DatabaseNetwork.user[39] WriteAccesses ETV
vector 140 DatabaseNetwork.user[23] WriteAccesses ETV
vector 141 DatabaseNetwork.user[16] WriteAccesses ETV
vector 142 DatabaseNetwork.user[41] WriteAccesses ETV
vector 143 DatabaseNetwork.user[19] ReadAccesses ETV
vector 144 DatabaseNetwork.user[19] WaitTime ETV
vector 145 DatabaseNetwork.user[36] WriteAccesses ETV
vector 146 DatabaseNetwork.user[29] ReadAccesses ETV
vector 147 DatabaseNetwork.user[49] ReadAccesses ETV
vector 148 DatabaseNetwork.user[49] WaitTime ETV
vector 149 DatabaseNetwork.user[48] ReadAccesses ETV
vector 150 DatabaseNetwork.user[48] WaitTime ETV
vector 151 DatabaseNetwork.user[26] ReadAccesses ETV
vector 152 DatabaseNetwork.user[26] WaitTime ETV
vector 153 DatabaseNetwork.user[46] ReadAccesses ETV
vector 154 DatabaseNetwork.user[47] WriteAccesses ETV
vector 155 DatabaseNetwork.user[18] ReadAccesses ETV
vector 156 DatabaseNetwork.user[32] WriteAccesses ETV
vector 157 DatabaseNetwork.user[31] ReadAccesses ETV
vector 158 DatabaseNetwork.user[31] WaitTime ETV
vector 159 DatabaseNetwork.user[35] WriteAccesses ETV
vector 160 DatabaseNetwork.user[20] WriteAccesses ETV
vector 161 DatabaseNetwork.user[3] ReadAccesses ETV
vector 162 DatabaseNetwork.user[3] WaitTime ETV
vector 163 DatabaseNetwork.user[17] ReadAccesses ETV
vector 164 DatabaseNetwork.user[17] WaitTime ETV
vector 165 DatabaseNetwork.user[37] ReadAccesses ETV
vector 166 DatabaseNetwork.user[37] WaitTime ETV
vector 167 DatabaseNetwork.user[48] WriteAccesses ETV
vector 168 DatabaseNetwork.user[28] WriteAccesses ETV
vector 169 DatabaseNetwork.user[31] WriteAccesses ETV
vector 170 DatabaseNetwork.user[26] WriteAccesses ETV
vector 171 DatabaseNetwork.user[33] WriteAccesses ETV
vector 172 DatabaseNetwork.user[42] ReadAccesses ETV
vector 173 DatabaseNetwork.user[42] WaitTime ETV
vector 174 DatabaseNetwork.user[4] WriteAccesses ETV
vector 175 DatabaseNetwork.user[42] WriteAccesses ETV
vector 176 DatabaseNetwork.user[37] WriteAccesses ETV
vector 177 DatabaseNetwork.user[5] WriteAccesses ETV
vector 178 DatabaseNetwork.user[34] WriteAccesses ETV
vector 179 DatabaseNetwork.user[49] WriteAccesses ETV
vector 180 DatabaseNetwork.user[3] WriteAccesses ETV
vector 181 DatabaseNetwork.user[6] WriteAccesses ETV
vector 182 DatabaseNetwork.user[1] ReadAccesses ETV
vector 183 DatabaseNetwork.user[1] WaitTime ETV
vector 184 DatabaseNetwork.user[43] WriteAccesses ETV
vector 185 DatabaseNetwork.user[7] ReadAccesses ETV
vector 186 DatabaseNetwork.user[7] WaitTime ETV
vector 187 DatabaseNetwork.user[7] WriteAccesses ETV
vector 188 DatabaseNetwork.user[9] WriteAccesses ETV
vector 189 DatabaseNetwork.user[24] WriteAccesses ETV
vector 190 DatabaseNetwork.user[40] WriteAccesses ETV
vector 191 DatabaseNetwork.user[1] WriteAccesses ETV
vector 192 DatabaseNetwork.user[21] WriteAccesses ETV
vector 193 DatabaseNetwork.user[17] WriteAccesses ETV
vector 194 DatabaseNetwork.user[25] WriteAccesses ETV
vector 195 DatabaseNetwork.user[19] WriteAccesses ETV
vector 196 DatabaseNetwork.user[13] WriteAccesses ETV
vector 197 DatabaseNetwork.user[2] WriteAccesses ETV
vector 198 DatabaseNetwork.user[15] WriteAccesses ETV
vector 199 DatabaseNetwork.user[22] WriteAccesses ETV
0	11583 20516 0 100275 0 9995.889420518453 494 0.04378995071778 124.10925927791 10002.825863978 426301.70056629
1	32099 20649 0 99691 0 9939.823819806299 496 0.18089710679768 157.08335234806 10009.9763063 403360.11814637
2	52748 19714 0 100141 0 9984.90847501606 474 0.083052448873016 113.73348733972 10014.867732561 396972.13229204
3	72462 21366 0 100145 0 9985.205523030981 513 0.0012464324972632 144.30896831085 10022.245286877 426683.24267605
4	93828 20422 0 100247 0 9994.641186268246 491 0.0022877524501596 167.47208890196 10019.480448957 406365.69638962
5	114250 19586 0 99685 0 9938.707525847262 471 0.034022997617106 146.54077052811 10020.795453832 457723.91439653
6	133836 19812 0 100273 0 9995.873192755381 477 0.0046995261757967 135.82546517282 10012.382531725 408855.24046406
7	153648 20769 0 100005 0 9970.392062532145 500 0.011785498617153 161.78465010198 10023.696653227 417812.61538665
8	174417 21797 0 100161 0 9986.286674192292 524 0.0093525160356137 112.53678602414 10011.233524594 392888.87319118
9	196214 21766 0 100097 0 9980.768308846214 524 0.0096988255991887 128.63535209932 10015.110332718 369579.63912325
10	217980 20909 0 100309 0 9999.323730446408 492 0.04482307594157 136.18650777439 10024.119170986 405149.14899383
11	238889 20273 0 100105 0 9982.435950593076 477 0.032971245861659 125.72276001175 10002.460240249 443938.05891236
12	259162 22387 0 100313 0 9999.743835119049 526 0.020622417526751 155.19481473245 10046.754683067 396762.75669453
13	281549 21732 0 100117 0 9983.274064792112 510 0.016313336599013 115.80328403756 10001.436714996 398943.61514227
14	303281 20639 0 99621 0 9934.794207324936 485 0.023576925227119 118.06320098652 10042.033863774 393998.11439617
15	323920 22208 0 100245 0 9994.564531859268 521 0.0060290523345309 108.56466610464 10044.857074034 390514.03010565
16	346128 21139 0 99857 0 9956.546213502864 497 0.024240820074891 105.32614040528 10019.388374668 383587.77586862
17	367267 19529 0 100235 0 9994.361739565753 458 0.010210143293873 124.22574704271 10000.463562829 419443.5399388
18	386796 22648 0 99753 0 9946.236706467247 532 0.11850180276754 143.67149581184 10000.225373027 378164.69994144
19	409444 20258 0 100213 0 9993.303470864849 476 0.015647831421861 120.88254337397 10000.707903664 405260.1967293
20	429702 22224 0 99953 0 9967.034320685158 522 0.05614477027717 162.44347657589 10045.714816339 378751.11230663
21	451926 20927 0 100253 0 9994.746911280532 492 0.016861007831714 127.78164702001 10058.210738443 395845.18870571
22	472853 21817 0 99999 0 9970.169406943854 512 0.085745785495543 124.81504572751 10014.617394766 371662.09944011
23	494670 21321 0 99845 0 9954.824043988883 501 0.0047694757447799 143.99417922588 10004.603051153 418698.879766
24	515991 22204 0 100085 0 9979.830184232742 521 0.027238299938806 109.39955039684 10010.962847951 397874.68679757
25	538195 21837 0 99725 0 9944.957293673336 512 0.031380891463851 103.75390831685 10015.602502049 372286.60044049
26	560032 20893 0 100301 0 9999.124400903867 490 0.067299033941683 118.62025215688 10006.915806997 390233.34547789
27	580925 22004 0 100285 0 9996.909133528133 517 0.032509817053472 107.82447639984 10001.206732123 372722.91197825
28	602929 21882 0 100293 0 9997.13987354272 514 0.10682187017083 119.75574055452 10065.589383757 391232.99088153
29	624811 22001 0 100269 0 9995.638212903035 517 0.007911226571599 140.83103141144 10012.829055566 399106.90889412
30	646812 22480 0 100259 0 9995.045420130881 528 0.018268055795834 130.45124485531 10015.998740168 399551.12866962
31	669292 21166 0 100185 0 9989.608798505992 497 0.00656944082575 113.70834726851 10009.15950182 390815.40790573
32	690458 19891 0 100177 0 9987.919326690586 468 0.021926290959273 134.39802084088 10009.092957421 422226.86738569
33	710349 20049 0 100221 0 9993.483041563121 471 0.062553937769581 126.03142106458 10032.129160399 429455.75560686
34	730398 21094 0 100257 0 9995.036960345082 497 0.037590327724863 119.69087402837 10006.974817524 398628.17613503
35	751492 21410 0 99899 0 9961.43933088648 503 1.3536778203144e-05 158.79957088961 10025.409265019 397557.33790508
36	772902 22154 0 100033 0 9973.476598957008 521 0.09810892104204 122.40181629946 10015.596924114 379984.49315511
37	795056 21903 0 100147 0 9985.249228058863 514 0.16499758100554 105.18744290357 10005.726374796 371114.86544636
38	816959 20827 0 100035 0 9973.502929339065 489 0.10531727633488 114.51933954131 10088.02226888 403375.23233604
39	837786 21713 0 99915 0 9962.35285767613 510 0.033163387790777 133.87975209946 10035.429313956 394265.19780597
40	859499 21929 0 100219 0 9993.432866301964 515 0.025431191162894 131.25349800398 10001.409431893 383244.76731735
41	881428 21030 0 100209 0 9991.745734511542 494 0.20378258982111 129.14549231516 10011.813027166 393966.537879
42	902458 22081 0 100057 0 9976.411656735908 518 0.067563352854887 123.23558193861 10030.380039833 388169.69984507
43	924539 20952 0 100237 0 9994.364353004196 492 0.17895383031528 131.53743934764 10001.992883771 421014.66273711
44	945491 22837 0 99973 0 9967.837353299864 536 0.0091809521365116 96.212713894082 10019.302679523 362428.92943928
45	968328 21855 0 100265 0 9995.47816126231 514 0.077336942381213 147.93350231408 10043.586602968 390865.01527772
46	990183 21825 0 99739 0 9946.062900600258 513 0.01233056702785 122.16994690786 10023.19417176 386878.54549077
47	1012008 22174 0 99949 0 9966.121814515265 521 0.0098736877915384 135.0801409427 10003.297740974 369528.58934935
48	1034182 21025 0 100217 0 9993.417662078176 494 0.018819500034071 145.57086919751 10002.963776967 395737.26564854
49	1055207 21239 0 99797 0 9949.763690353548 498 0.051942021139155 143.88626185016 10047.749773825 431447.71240221
50	1076446 11103 1 100247 0.00228775245 9994.641186268246 387 1 1 387 387
51	1087549 21592 4 100252 0.10228775245 9994.741186268246 490 0.099999999998545 0.19490235237799 49.347316500912 4.9968904078625
52	1109141 11891 5 100293 0.555392552337 9997.13987354272 415 1 1 415 415
53	1121032 22560 8 100296 0.655392552337 9997.23987354272 513 0.099999999998545 0.18712344822325 51.443326535032 5.169234089493
54	1143592 2979 13 97541 1.937677450053 9730.48780186631 104 1 1 104 104
55	1146571 11857 15 100265 1.947864782496 9995.47816126231 414 1 1 414 414
56	1158428 21565 18 100312 2.037677450053 9999.423730446408 491 0.099999999998545 0.1946330231558 49.307482394692 4.9655492444
57	1179993 22544 20 100268 2.047864782496 9995.57816126231 513 0.099999999998545 0.2015970032453 51.848460255157 5.2886858055358
58	1202537 11173 21 99685 2.742171611863 9938.707525847262 390 1 1 390 390
59	1213710 20667 24 99688 2.842171611863 9938.807525847262 470 0.099999999998545 0.17130682852985 47.071306828537 4.7193460295024
60	1234377 11994 25 100033 3.025458353437 9973.476598957008 419 1 1 419 419
61	1246371 22834 28 100038 3.125458353437 9973.576598957008 520 0.099999999998545 0.19707282939817 52.550408552643 5.3490348110962
62	1269205 2722 29 100161 3.174191944526 9986.286674192292 95 1 1 95 95
63	1271927 23060 32 100164 3.274191944526 9986.386674192292 523 0.099999999998545 0.19627144402102 52.585119489075 5.3088924222057
64	1294987 12540 37 100313 4.122292679277 9999.743835119049 437 1 1 437 437
65	1307527 23099 40 100316 4.222292679277 9999.843835119049 525 0.099999999998545 0.22970628849998 52.689683027043 5.3083575358501
66	1330626 2410 41 98903 4.415464337692 9864.086835623046 84 1 1 84 84
67	1333036 21469 44 100040 4.515464337692 9973.602929339065 488 0.099999999998545 0.14699685839423 48.920008621086 4.9089798266386
68	1354505 11914 45 99931 4.574488131862 9963.882174176026 415 1 1 415 415
69	1366419 22887 48 100090 4.674488131862 9979.930184232742 520 0.099999999998545 0.17566919030196 52.247062237135 5.2624940288764
70	1389306 12177 49 100285 5.216316998776 9996.909133528133 425 1 1 425 425
71	1401483 22700 52 100290 5.316316998776 9997.009133528133 516 0.099999999998545 0.18203590277585 51.840672686557 5.2274474255008
72	1424183 11910 53 100087 5.386079153525 9979.904599080381 416 1 1 416 416
73	1436093 23051 56 100100 5.486079153525 9980.868308846214 523 0.099999999998545 0.17929137249212 52.553427856218 5.298672778005
74	1459144 11583 61 100035 6.437794111495 9973.502929339065 404 1 1 404 404
75	1470727 10822 71 100273 7.200254957118 9995.873192755381 378 1 1 378 378
76	1481549 20949 76 100278 7.300254957118 9995.973192755381 476 0.099999999998545 0.19432410738409 47.933873553942 4.8517316038408
77	1502498 11321 77 99881 7.516383853158 9958.821646654554 395 1 1 395 395
78	1513819 12630 79 99973 7.520772448292 9967.837353299864 440 1 1 440 440
79	1526449 21643 82 100256 7.616383853158 9994.846911280532 491 0.099999999998545 0.19134164577395 49.353591612973 4.9772321584205
80	1548092 23578 84 99980 7.620772448292 9967.937353299864 535 0.099999999998545 0.17207451378817 53.594086742364 5.3744966222174
81	1571670 2688 85 99059 8.479529576145 9882.983459210497 94 1 1 94 94
82	1574358 21300 88 99624 8.579529576145 9934.894207324936 484 0.099999999998545 0.19908174930015 48.732585846445 4.9323212099553
83	1595658 2832 89 99409 8.787241111955 9914.918472929406 99 1 1 99 99
84	1598490 11185 93 99621 9.084618477075 9934.794207324936 390 1 1 390 390
85	1609675 11358 97 100117 9.81754315573 9983.274064792112 396 1 1 396 396
86	1621033 22432 100 100120 9.91754315573 9983.374064792112 509 0.099999999998545 0.19440248895989 51.012404636437 5.1215623300911
87	1643465 2715 101 98449 10.102860213487 9815.56024308856 95 1 1 95 95
88	1646180 10894 103 99857 10.109050649433 9956.546213502864 380 1 1 380 380
89	1657074 20906 106 100108 10.202860213487 9982.535950593076 476 0.099999999998545 0.19790509062113 47.936710746933 4.8522213880051
90	1677980 21825 108 99860 10.209050649433 9956.646213502864 496 0.099999999998545 0.23822348842714 49.824959803472 5.0271565632608
91	1699805 2717 109 98463 10.536442357222 9816.317364757935 95 1 1 95 95
92	1702522 11285 113 100275 10.792116530237 9995.889420518453 394 1 1 394 394
93	1713807 10396 115 100177 10.801820995773 9987.919326690586 363 1 1 363 363
94	1724203 12347 117 99953 10.866787572517 9967.034320685158 430 1 1 430 430
95	1736550 21671 120 100280 10.892116530237 9995.989420518453 493 0.099999999998545 0.13855845330818 49.502698658714 4.9770434353909
96	1758221 20529 122 100180 10.901820995773 9988.019326690586 467 0.099999999998545 0.19343510809631 46.84947366599 4.7117651725947
97	1778750 22964 124 99956 10.966787572517 9967.134320685158 521 0.099999999998545 0.19981167270453 52.318507249378 5.2701601742247
98	1801714 11788 125 99899 11.266904626835 9961.43933088648 412 1 1 412 412
99	1813502 22052 128 99904 11.366904626835 9961.53933088648 502 0.099999999998545 0.19710697804976 50.471033388374 5.0924310245559
100	1835554 12312 129 99725 11.720069290216 9944.957293673336 414 1 1 414 414
101	1847866 23071 132 99730 11.820069290216 9945.057293673336 511 0.099999999998545 0.14438848170539 51.186500565925 5.1310438781297
102	1870937 10834 133 100221 12.220464220164 9993.483041563121 365 1 1 365 365
103	1881771 21162 136 100228 12.320464220164 9993.583041563121 470 0.099999999998545 0.18955298529227 47.169321104483 4.7470990721695
104	1902933 11456 137 100309 12.551030371278 9999.323730446408 387 1 1 387 387
105	1914389 2707 141 99781 13.011443982673 9948.636144449384 91 1 1 91 91
106	1917096 12369 145 99949 14.602554102703 9966.121814515265 417 1 1 417 417
107	1929465 23402 148 99952 14.702554102703 9966.221814515265 520 0.099999999998545 0.18063709098533 52.501630023707 5.3330625101925
108	1952867 11686 149 99773 14.869793813563 9948.060347366629 394 1 1 394 394
109	1964553 22479 152 99848 14.969793813563 9954.924043988883 500 0.099999999998545 0.19962823889273 50.389614139418 5.1031285284485
110	1987032 2727 153 99313 15.289165049021 9905.428398823183 92 1 1 92 92
111	1989759 23238 156 100272 15.389165049021 9995.738212903035 516 0.099999999998545 0.17790724800989 51.831511562148 5.2195943859934
112	2012997 3362 157 98783 15.479195405514 9852.405096498054 113 1 1 113 113
113	2016359 23924 162 99756 15.579195405514 9946.336706467247 531 0.099999999998545 0.1762599289159 53.40359791404 5.3882704253951
114	2040283 11939 165 100257 16.360146227598 9995.036960345082 404 1 1 404 404
115	2052222 22305 168 100262 16.460146227598 9995.136960345082 496 0.099999999998545 0.18495893867657 49.900175180146 5.0428127803573
116	2074527 11275 169 100105 19.068048122426 9982.435950593076 381 1 1 381 381
117	2085802 2926 173 98433 19.529346419922 9813.237667622085 99 1 1 99 99
118	2088728 12835 199 100173 22.157866916913 9987.482232253061 432 1 1 432 432
119	2101563 12256 201 100259 22.201606371005 9995.045420130881 413 1 1 413 413
120	2113819 23498 206 100250 22.257866916913 9994.664531859268 520 0.099999999998545 0.11108500144292 52.012446347526 5.2026140000253
121	2137317 23748 208 100264 22.301606371005 9995.145420130881 527 0.099999999998545 0.18519894779092 52.919661868757 5.3306258996042
122	2161065 12353 213 99961 23.117594212154 9967.638071754621 416 1 1 416 416
123	2173418 2603 215 98629 23.20630254652 9831.203159551931 88 1 1 88 88
124	2176021 23066 218 100004 23.217594212154 9970.269406943854 511 0.099999999998545 0.10000000000036 51.099999999989 5.1099999999978
125	2199087 3148 221 99739 23.574070050879 9946.062900600258 106 1 1 106 106
126	2202235 23067 224 99748 23.674070050879 9946.162900600258 512 0.099999999998545 0.19827080333562 51.406909626373 5.1755845008995
127	2225302 12704 237 100121 24.787815744773 9983.750517878326 428 1 1 428 428
128	2238006 12138 249 100209 25.173544223505 9991.745734511542 409 1 1 409 409
129	2250144 22219 252 100212 25.273544223505 9991.845734511542 493 0.099999999998545 0.2672843630653 49.556264532392 5.0171544351374
130	2272363 11595 259 100141 25.482504763199 9984.90847501606 391 1 1 391 391
131	2283958 21337 264 100144 25.582504763199 9985.00847501606 473 0.099999999998545 0.17659108080488 47.557624483854 4.796277889497
132	2305295 3371 265 98857 27.523215309279 9861.358487619741 114 1 1 114 114
133	2308666 12147 291 99915 30.136654979855 9962.35285767613 409 1 1 409 409
134	2320813 22932 296 99920 30.236654979855 9962.45285767613 509 0.099999999998545 0.19648560873338 51.162156315723 5.1568474808027
135	2343745 12304 321 100165 32.263353825185 9986.768507063525 415 1 1 415 415
136	2356049 23174 326 100226 32.363353825185 9993.532866301964 514 0.099999999998545 0.17258210701493 51.695851102687 5.2143726244901
137	2379223 11641 331 100189 32.466427183572 9989.719408424896 392 1 1 392 392
138	2390864 22149 336 100244 32.566427183572 9994.464353004196 491 0.099999999998545 0.1292606664374 49.139956949475 4.9189619869664
139	2413013 2959 337 99819 33.293903527973 9951.6994818327 100 1 1 100 100
140	2415972 3135 353 99845 34.158070198446 9954.824043988883 106 1 1 106 106
141	2419107 3441 365 99239 35.280245318415 9899.006118312135 116 1 1 116 116
142	2422548 2486 385 99929 35.686179960453 9963.804571272364 84 1 1 84 84
143	2425034 11412 401 100213 37.456473337418 9993.303470864849 385 1 1 385 385
144	2436446 21414 404 100216 37.556473337418 9993.403470864849 475 0.099999999998545 0.1960661185667 47.685781308844 4.8015675994307
145	2457860 2996 405 98649 38.290999169238 9834.66555896039 101 1 1 101 101
146	2460856 12568 417 100269 39.980727997596 9995.638212903035 424 1 1 424 424
147	2473424 11715 419 99797 40.052609541518 9949.763690353548 394 1 1 394 394
148	2485139 22485 424 99802 40.152609541518 9949.863690353548 497 0.099999999998545 0.14594742031659 49.745947420301 4.9813006494939
149	2507624 11589 433 100217 41.812338459188 9993.417662078176 390 1 1 390 390
150	2519213 22226 436 100224 41.912338459188 9993.517662078176 493 0.099999999998545 0.168049800669 49.663485460001 5.0222838340338
151	2541439 11508 437 100301 42.093945925536 9999.124400903867 387 1 1 387 387
152	2552947 22066 440 100306 42.193945925536 9999.224400903867 489 0.099999999998545 0.10358626787593 48.90358626788 4.8907301148933
153	2575013 12035 443 99551 42.557999278184 9927.372671259377 406 1 1 406 406
154	2587048 3051 475 99257 44.235689562709 9900.907667255645 103 1 1 103 103
155	2590099 12396 483 99753 44.407945873917 9946.236706467247 418 1 1 418 418
156	2602495 3059 497 99477 45.568848952848 9920.957988310654 104 1 1 104 104
157	2605554 11586 529 100153 49.059329604428 9985.980059398919 390 1 1 390 390
158	2617140 22352 532 100188 49.159329604428 9989.708798505992 496 0.099999999998545 0.18108502841278 49.742278106359 4.9980980226405
159	2639492 2666 545 97441 51.265206868411 9722.459354239642 90 1 1 90 90
160	2642158 2695 569 98815 53.496956207713 9856.485353427782 91 1 1 91 91
161	2644853 12335 581 100079 53.929556758937 9979.371049025077 415 1 1 415 415
162	2657188 23135 584 100150 54.029556758937 9985.305523030981 512 0.099999999998545 0.18089110595338 51.309466800245 5.1492533013756
163	2680323 11001 601 100235 54.833920313446 9994.361739565753 370 1 1 370 370
164	2691324 20632 604 100242 54.933920313446 9994.461739565753 457 0.099999999998545 0.18981006036665 45.817067167854 4.6022222304227
165	2711956 12244 605 100147 55.97957222567 9985.249228058863 412 1 1 412 412
166	2724200 23145 608 100152 56.07957222567 9985.349228058863 513 0.099999999998545 0.19353010286795 51.66262673374 5.2305103868129
167	2747345 3043 627 99827 57.513081204143 9952.191256992166 103 1 1 103 103
168	2750388 2905 629 100281 57.571017483855 9996.25228410217 98 1 1 98 98
169	2753293 3141 673 100185 60.792163416128 9989.608798505992 106 1 1 106 106
170	2756434 3029 675 99193 60.804129727388 9894.062998699948 102 1 1 102 102
171	2759463 3124 681 100157 61.51088613068 9986.180408717149 105 1 1 105 105
172	2762587 12383 733 100057 69.004541745721 9976.411656735908 417 1 1 417 417
173	2774970 23346 738 100060 69.104541745721 9976.511656735908 517 0.099999999998545 0.18988252441341 52.056675219095 5.2647968316469
174	2798316 3059 773 98275 75.307688990609 9798.039776310301 103 1 1 103 103
175	2801375 2966 821 99511 82.43254127402 9924.449174290318 100 1 1 100 100
176	2804341 3000 835 99549 83.124532885043 9927.28373587155 101 1 1 101 101
177	2807341 2373 897 99657 89.01739180709 9937.00829603919 80 1 1 80 80
178	2809714 2738 941 97937 97.086452179096 9763.278429248861 92 1 1 92 92
179	2812452 3062 989 99265 101.133029933605 9901.645392801125 103 1 1 103 103