version 3
run Lognormal-2-20260105-17:15:11-28123
attr configname Lognormal
attr datetime 20260105-17:15:11
attr datetimef 20260105-171511
attr experiment Lognormal
attr inifile omnetpp.ini
attr iterationvars "$N=50, $p=0.3"
attr iterationvarsd N=50/p=0.3
attr iterationvarsf N=50,p=0.3-
attr measurement "$N=50, $p=0.3"
attr network progetto.DatabaseNetwork
attr processid 28123
attr repetition 2
attr replication #2
attr resultdir results
attr runnumber 2
attr seedset 2
itervar N 50
itervar p 0.3
config description "Lognormal distribution (hotspots) - varia N e p"
config *.user[*].tableDistribution "\"lognormal\""
config *.user[*].lognormalM 1.5
config *.user[*].lognormalS 1.0
config *.numUsers 50
config *.user[*].readProbability 0.3
config network progetto.DatabaseNetwork
config sim-time-limit 10000s
config cpu-time-limit 3600s
config repeat 5
config seed-set 2
config output-vector-file "results/Lognormal-$N=50, $p=0.3-2.vec"
config output-scalar-file "results/Lognormal-$N=50, $p=0.3-2.sca"
config result-dir results
config **.vector-recording true
config **.scalar-recording true
config *.numTables 20
config *.user[*].lambda 0.05
config *.user[*].serviceTime 0.1s

vector 0 DatabaseNetwork.user[0] AccessInterval ETV
vector 1 DatabaseNetwork.user[1] AccessInterval ETV
vector 2 DatabaseNetwork.user[2] AccessInterval ETV
vector 3 DatabaseNetwork.user[3] AccessInterval ETV
vector 4 DatabaseNetwork.user[4] AccessInterval ETV
vector 5 DatabaseNetwork.user[5] AccessInterval ETV
vector 6 DatabaseNetwork.user[6] AccessInterval ETV
vector 7 DatabaseNetwork.user[7] AccessInterval ETV
vector 8 DatabaseNetwork.user[8] AccessInterval ETV
vector 9 DatabaseNetwork.user[9] AccessInterval ETV
vector 10 DatabaseNetwork.user[10] AccessInterval ETV
vector 11 DatabaseNetwork.user[11] AccessInterval ETV
vector 12 DatabaseNetwork.user[12] AccessInterval ETV
vector 13 DatabaseNetwork.user[13] AccessInterval ETV
vector 14 DatabaseNetwork.user[14] AccessInterval ETV
vector 15 DatabaseNetwork.user[15] AccessInterval ETV
vector 16 DatabaseNetwork.user[16] AccessInterval ETV
vector 17 DatabaseNetwork.user[17] AccessInterval ETV
vector 18 DatabaseNetwork.user[18] AccessInterval ETV
vector 19 DatabaseNetwork.user[19] AccessInterval ETV
vector 20 DatabaseNetwork.user[20] AccessInterval ETV
vector 21 DatabaseNetwork.user[21] AccessInterval ETV
vector 22 DatabaseNetwork.user[22] AccessInterval ETV
vector 23 DatabaseNetwork.user[23] AccessInterval ETV
vector 24 DatabaseNetwork.user[24] AccessInterval ETV
vector 25 DatabaseNetwork.user[25] AccessInterval ETV
vector 26 DatabaseNetwork.user[26] AccessInterval ETV
vector 27 DatabaseNetwork.user[27] AccessInterval ETV
vector 28 DatabaseNetwork.user[28] AccessInterval ETV
vector 29 DatabaseNetwork.user[29] AccessInterval ETV
vector 30 DatabaseNetwork.user[30] AccessInterval ETV
vector 31 DatabaseNetwork.user[31] AccessInterval ETV
vector 32 DatabaseNetwork.user[32] AccessInterval ETV
vector 33 DatabaseNetwork.user[33] AccessInterval ETV
vector 34 DatabaseNetwork.user[34] AccessInterval ETV
vector 35 DatabaseNetwork.user[35] AccessInterval ETV
vector 36 DatabaseNetwork.user[36] AccessInterval ETV
vector 37 DatabaseNetwork.user[37] AccessInterval ETV
vector 38 DatabaseNetwork.user[38] AccessInterval ETV
vector 39 DatabaseNetwork.user[39] AccessInterval ETV
vector 40 DatabaseNetwork.user[40] AccessInterval ETV
vector 41 DatabaseNetwork.user[41] AccessInterval ETV
vector 42 DatabaseNetwork.user[42] AccessInterval ETV
vector 43 DatabaseNetwork.user[43] AccessInterval ETV
vector 44 DatabaseNetwork.user[44] AccessInterval ETV
vector 45 DatabaseNetwork.user[45] AccessInterval ETV
vector 46 DatabaseNetwork.user[46] AccessInterval ETV
vector 47 DatabaseNetwork.user[47] AccessInterval ETV
vector 48 DatabaseNetwork.user[48] AccessInterval ETV
vector 49 DatabaseNetwork.user[49] AccessInterval ETV
vector 50 DatabaseNetwork.user[2] ReadAccesses ETV
vector 51 DatabaseNetwork.user[2] WaitTime ETV
vector 52 DatabaseNetwork.user[42] ReadAccesses ETV
vector 53 DatabaseNetwork.user[42] WaitTime ETV
vector 54 DatabaseNetwork.user[38] WriteAccesses ETV
vector 55 DatabaseNetwork.user[38] WaitTime ETV
vector 56 DatabaseNetwork.user[46] WriteAccesses ETV
vector 57 DatabaseNetwork.user[46] WaitTime ETV
vector 58 DatabaseNetwork.user[45] WriteAccesses ETV
vector 59 DatabaseNetwork.user[15] WriteAccesses ETV
vector 60 DatabaseNetwork.user[45] WaitTime ETV
vector 61 DatabaseNetwork.user[15] WaitTime ETV
vector 62 DatabaseNetwork.user[48] ReadAccesses ETV
vector 63 DatabaseNetwork.user[48] WaitTime ETV
vector 64 DatabaseNetwork.user[24] WriteAccesses ETV
vector 65 DatabaseNetwork.user[24] WaitTime ETV
vector 66 DatabaseNetwork.user[11] WriteAccesses ETV
vector 67 DatabaseNetwork.user[11] WaitTime ETV
vector 68 DatabaseNetwork.user[37] WriteAccesses ETV
vector 69 DatabaseNetwork.user[37] WaitTime ETV
vector 70 DatabaseNetwork.user[47] WriteAccesses ETV
vector 71 DatabaseNetwork.user[28] WriteAccesses ETV
vector 72 DatabaseNetwork.user[1] WriteAccesses ETV
vector 73 DatabaseNetwork.user[47] WaitTime ETV
vector 74 DatabaseNetwork.user[28] WaitTime ETV
vector 75 DatabaseNetwork.user[1] WaitTime ETV
vector 76 DatabaseNetwork.user[12] WriteAccesses ETV
vector 77 DatabaseNetwork.user[12] WaitTime ETV
vector 78 DatabaseNetwork.user[2] WriteAccesses ETV
vector 79 DatabaseNetwork.user[31] WriteAccesses ETV
vector 80 DatabaseNetwork.user[31] WaitTime ETV
vector 81 DatabaseNetwork.user[18] WriteAccesses ETV
vector 82 DatabaseNetwork.user[18] WaitTime ETV
vector 83 DatabaseNetwork.user[43] WriteAccesses ETV
vector 84 DatabaseNetwork.user[43] WaitTime ETV
vector 85 DatabaseNetwork.user[41] ReadAccesses ETV
vector 86 DatabaseNetwork.user[16] WriteAccesses ETV
vector 87 DatabaseNetwork.user[41] WaitTime ETV
vector 88 DatabaseNetwork.user[16] WaitTime ETV
vector 89 DatabaseNetwork.user[9] WriteAccesses ETV
vector 90 DatabaseNetwork.user[9] WaitTime ETV
vector 91 DatabaseNetwork.user[10] WriteAccesses ETV
vector 92 DatabaseNetwork.user[10] WaitTime ETV
vector 93 DatabaseNetwork.user[37] ReadAccesses ETV
vector 94 DatabaseNetwork.user[35] WriteAccesses ETV
vector 95 DatabaseNetwork.user[35] WaitTime ETV
vector 96 DatabaseNetwork.user[8] WriteAccesses ETV
vector 97 DatabaseNetwork.user[8] WaitTime ETV
vector 98 DatabaseNetwork.user[44] WriteAccesses ETV
vector 99 DatabaseNetwork.user[44] WaitTime ETV
vector 100 DatabaseNetwork.user[6] WriteAccesses ETV
vector 101 DatabaseNetwork.user[0] WriteAccesses ETV
vector 102 DatabaseNetwork.user[6] WaitTime ETV
vector 103 DatabaseNetwork.user[0] WaitTime ETV
vector 104 DatabaseNetwork.user[7] WriteAccesses ETV
vector 105 DatabaseNetwork.user[17] ReadAccesses ETV
vector 106 DatabaseNetwork.user[7] WaitTime ETV
vector 107 DatabaseNetwork.user[17] WaitTime ETV
vector 108 DatabaseNetwork.user[34] WriteAccesses ETV
vector 109 DatabaseNetwork.user[49] ReadAccesses ETV
vector 110 DatabaseNetwork.user[34] WaitTime ETV
vector 111 DatabaseNetwork.user[49] WaitTime ETV
vector 112 DatabaseNetwork.user[25] WriteAccesses ETV
vector 113 DatabaseNetwork.user[25] WaitTime ETV
vector 114 DatabaseNetwork.user[40] WriteAccesses ETV
vector 115 DatabaseNetwork.user[40] WaitTime ETV
vector 116 DatabaseNetwork.user[26] WriteAccesses ETV
vector 117 DatabaseNetwork.user[26] WaitTime ETV
vector 118 DatabaseNetwork.user[22] ReadAccesses ETV
vector 119 DatabaseNetwork.user[22] WaitTime ETV
vector 120 DatabaseNetwork.user[33] ReadAccesses ETV
vector 121 DatabaseNetwork.user[33] WaitTime ETV
vector 122 DatabaseNetwork.user[4] WriteAccesses ETV
vector 123 DatabaseNetwork.user[4] WaitTime ETV
vector 124 DatabaseNetwork.user[48] WriteAccesses ETV
vector 125 DatabaseNetwork.user[27] ReadAccesses ETV
vector 126 DatabaseNetwork.user[27] WaitTime ETV
vector 127 DatabaseNetwork.user[14] ReadAccesses ETV
vector 128 DatabaseNetwork.user[20] WriteAccesses ETV
vector 129 DatabaseNetwork.user[14] WaitTime ETV
vector 130 DatabaseNetwork.user[20] WaitTime ETV
vector 131 DatabaseNetwork.user[43] ReadAccesses ETV
vector 132 DatabaseNetwork.user[22] WriteAccesses ETV
vector 133 DatabaseNetwork.user[19] WriteAccesses ETV
vector 134 DatabaseNetwork.user[19] WaitTime ETV
vector 135 DatabaseNetwork.user[6] ReadAccesses ETV
vector 136 DatabaseNetwork.user[17] WriteAccesses ETV
vector 137 DatabaseNetwork.user[23] ReadAccesses ETV
vector 138 DatabaseNetwork.user[23] WaitTime ETV
vector 139 DatabaseNetwork.user[46] ReadAccesses ETV
vector 140 DatabaseNetwork.user[13] WriteAccesses ETV
vector 141 DatabaseNetwork.user[13] WaitTime ETV
vector 142 DatabaseNetwork.user[29] WriteAccesses ETV
vector 143 DatabaseNetwork.user[29] WaitTime ETV
vector 144 DatabaseNetwork.user[49] WriteAccesses ETV
vector 145 DatabaseNetwork.user[30] WriteAccesses ETV
vector 146 DatabaseNetwork.user[30] WaitTime ETV
vector 147 DatabaseNetwork.user[25] ReadAccesses ETV
vector 148 DatabaseNetwork.user[9] ReadAccesses ETV
vector 149 DatabaseNetwork.user[21] WriteAccesses ETV
vector 150 DatabaseNetwork.user[21] WaitTime ETV
vector 151 DatabaseNetwork.user[14] WriteAccesses ETV
vector 152 DatabaseNetwork.user[45] ReadAccesses ETV
vector 153 DatabaseNetwork.user[36] WriteAccesses ETV
vector 154 DatabaseNetwork.user[36] WaitTime ETV
vector 155 DatabaseNetwork.user[32] WriteAccesses ETV
vector 156 DatabaseNetwork.user[32] WaitTime ETV
vector 157 DatabaseNetwork.user[40] ReadAccesses ETV
vector 158 DatabaseNetwork.user[21] ReadAccesses ETV
vector 159 DatabaseNetwork.user[29] ReadAccesses ETV
vector 160 DatabaseNetwork.user[38] ReadAccesses ETV
vector 161 DatabaseNetwork.user[3] WriteAccesses ETV
vector 162 DatabaseNetwork.user[3] WaitTime ETV
vector 163 DatabaseNetwork.user[13] ReadAccesses ETV
vector 164 DatabaseNetwork.user[0] ReadAccesses ETV
vector 165 DatabaseNetwork.user[34] ReadAccesses ETV
vector 166 DatabaseNetwork.user[41] WriteAccesses ETV
vector 167 DatabaseNetwork.user[5] ReadAccesses ETV
vector 168 DatabaseNetwork.user[5] WaitTime ETV
vector 169 DatabaseNetwork.user[3] ReadAccesses ETV
vector 170 DatabaseNetwork.user[10] ReadAccesses ETV
vector 171 DatabaseNetwork.user[33] WriteAccesses ETV
vector 172 DatabaseNetwork.user[35] ReadAccesses ETV
vector 173 DatabaseNetwork.user[5] WriteAccesses ETV
vector 174 DatabaseNetwork.user[23] WriteAccesses ETV
vector 175 DatabaseNetwork.user[39] ReadAccesses ETV
vector 176 DatabaseNetwork.user[39] WaitTime ETV
vector 177 DatabaseNetwork.user[39] WriteAccesses ETV
vector 178 DatabaseNetwork.user[30] ReadAccesses ETV
vector 179 DatabaseNetwork.user[27] WriteAccesses ETV
vector 180 DatabaseNetwork.user[16] ReadAccesses ETV
vector 181 DatabaseNetwork.user[7] ReadAccesses ETV
vector 182 DatabaseNetwork.user[18] ReadAccesses ETV
vector 183 DatabaseNetwork.user[36] ReadAccesses ETV
vector 184 DatabaseNetwork.user[28] ReadAccesses ETV
vector 185 DatabaseNetwork.user[19] ReadAccesses ETV
vector 186 DatabaseNetwork.user[42] WriteAccesses ETV
vector 187 DatabaseNetwork.user[4] ReadAccesses ETV
vector 188 DatabaseNetwork.user[44] ReadAccesses ETV
vector 189 DatabaseNetwork.user[26] ReadAccesses ETV
vector 190 DatabaseNetwork.user[15] ReadAccesses ETV
vector 191 DatabaseNetwork.user[32] ReadAccesses ETV
vector 192 DatabaseNetwork.user[31] ReadAccesses ETV
vector 193 DatabaseNetwork.user[24] ReadAccesses ETV
vector 194 DatabaseNetwork.user[8] ReadAccesses ETV
vector 195 DatabaseNetwork.user[11] ReadAccesses ETV
vector 196 DatabaseNetwork.user[12] ReadAccesses ETV
vector 197 DatabaseNetwork.user[1] ReadAccesses ETV
vector 198 DatabaseNetwork.user[47] ReadAccesses ETV
vector 199 DatabaseNetwork.user[20] ReadAccesses ETV
0	0	0	11.453839792544
0	123	11.453839792544	8.3683203653956
0	221	19.82216015794	6.4437551515853
0	289	26.265915309525	28.06319185498
0	553	54.329107164505	12.845009758884
0	711	67.174116923389	13.4454700871
0	841	80.619587010489	10.221331055951
0	961	90.84091806644	10.069785095143
0	1069	100.910703161583	6.7090804524745
0	1143	107.619783614057	51.599085288818
0	1681	159.218868902875	36.11998431934
0	2061	195.338853222215	2.4853940480146
0	2077	197.82424727023	0.52994182899262
0	2085	198.354189099223	12.008329314847
0	2213	210.36251841407	12.062652815594
0	2313	222.425171229664	0.74490373077275
0	2317	223.170074960437	4.8930451029033
0	2349	228.06312006334	39.48911472738
0	2659	267.55223479072	22.232811161611
0	2879	289.785045952331	1.1503892673139
0	2905	290.935435219645	38.938915103141
0	3311	329.874350322786	1.0566592940709
0	3331	330.931009616857	27.413852240835
0	3625	358.344861857692	21.947355550868
0	3845	380.29221740856	22.499960596914
0	4113	402.792178005474	12.235930711014
0	4259	415.028108716488	26.934617504057
0	4529	441.962726220545	20.503487877261
0	4745	462.466214097806	13.200369409983
0	4865	475.666583507789	3.9476190231751
0	4915	479.614202530964	20.220374628012
0	5145	499.834577158976	0.40842033089962
0	5157	500.242997489876	12.089228801986
0	5265	512.332226291862	23.602944543082
0	5537	535.935170834944	2.1972213112707
0	5567	538.132392146215	9.574339286407
0	5653	547.706731432622	16.217856240654
0	5793	563.924587673276	81.626749643292
0	6649	645.551337316568	15.12761928316
0	6789	660.678956599728	21.054816035098
0	7005	681.733772634826	65.644827828233
0	7741	747.378600463059	16.192024536809
0	7849	763.570624999868	3.9775538255374
0	7909	767.548178825405	11.989817025436
0	8029	779.537995850841	1.0481476304728
0	8041	780.586143481314	9.6126543839381
0	8089	790.198797865252	3.1697010470971
0	8137	793.368498912349	9.5618358868962
0	8229	802.930334799245	10.892348114079
0	8313	813.822682913324	1.0599521847655
0	8317	814.88263509809	65.192596213925
0	9017	880.075231312015	1.9608259104595
0	9037	882.036057222475	1.120942893068
0	9045	883.157000115543	4.218374232809
0	9087	887.375374348352	7.5168536654658
0	9141	894.892228013818	9.5596993147407
0	9237	904.451927328559	27.282443935919
0	9517	931.734371264478	33.556494968597
0	9819	965.290866233075	0.6177458499706
0	9831	965.908612083046	10.215456977867
0	9907	976.124069060913	2.8434337000458
0	9927	978.967502760959	54.65518929604
0	10415	1033.622692056999	11.842794025814
0	10549	1045.465486082813	35.858481405886
0	10967	1081.323967488699	88.086087169104
0	11833	1169.410054657803	0.91435701438837
0	11843	1170.324411672191	73.32801353447
0	12617	1243.652425206661	4.1396913829533
0	12667	1247.792116589614	19.422688858619
0	12809	1267.214805448233	0.068973187488216
0	12811	1267.283778635721	20.786687507103
0	12969	1288.070466142824	10.866633324266
0	13093	1298.93709946709	0.69661448921024
0	13113	1299.6337139563	35.32103180223
0	13507	1334.95474575853	29.415224087929
0	13837	1364.369969846459	15.722620705141
0	13997	1380.0925905516	30.916239512473
0	14261	1411.008830064073	24.936545238414
0	14521	1435.945375302487	6.2482151543506
0	14609	1442.193590456838	18.808689484708
0	14791	1461.002279941546	36.897876246653
0	15129	1497.900156188199	38.797648584245
0	15483	1536.697804772444	88.323847718997
0	16473	1625.021652491441	15.89600258362
0	16641	1640.917655075061	1.3519315050971
0	16657	1642.269586580158	59.465200962081
0	17193	1701.734787542239	16.92717709934
0	17365	1718.661964641579	2.8838988247611
0	17401	1721.54586346634	6.6222916769619
0	17481	1728.168155143302	11.376653524405
0	17547	1739.544808667707	29.911133406519
0	17833	1769.455942074226	36.273975006447
0	18177	1805.729917080673	37.939644271675
0	18649	1843.669561352348	39.649865847497
0	19115	1883.319427199845	3.9191194786347
0	19149	1887.23854667848	40.154295843184
0	19603	1927.392842521664	12.236057795277
0	19723	1939.628900316941	1.4082086517721
0	19749	1941.037108968713	13.409714511645
0	19881	1954.446823480358	9.8960779057213
0	20009	1964.342901386079	29.955812052946
0	20311	1994.298713439025	3.8104588919809
0	20349	1998.109172331006	6.3826833641679
0	20425	2004.491855695174	63.515116123682
0	21029	2068.006971818856	21.016470116887
0	21237	2089.023441935743	3.4889075922901
0	21281	2092.512349528033	6.7729452257457
0	21341	2099.285294753779	2.5477133051161
0	21369	2101.833008058895	27.009183017245
0	21617	2128.84219107614	7.8079794359925
0	21699	2136.650170512132	26.021469989931
0	21995	2162.671640502063	3.5431591454267
0	22055	2166.21479964749	5.2353115058524
0	22111	2171.450111153342	6.7573163888118
0	22213	2178.207427542154	12.077084492065
0	22385	2190.284512034219	7.7530933493264
0	22437	2198.037605383545	38.727902021016
0	22773	2236.765507404561	1.0628941991125
0	22807	2237.828401603674	17.611305709124
0	23001	2255.439707312798	25.610008214115
0	23289	2281.049715526914	1.2734158069274
0	23317	2282.323131333841	2.4351461122235
0	23337	2284.758277446064	1.0268659041903
0	23365	2285.785143350254	4.4335700234315
0	23415	2290.218713373685	94.109277181705
0	24277	2384.32799055539	32.542334295481
0	24597	2416.870324850871	19.723494545821
0	24837	2436.593819396692	7.1481735242919
0	24901	2443.741992920984	19.479300378537
0	25087	2463.221293299521	25.972725412695
0	25413	2489.194018712216	21.930502370761
0	25607	2511.124521082977	52.500477971747
0	26177	2563.624999054724	28.390577037805
0	26461	2592.015576092529	14.756801616013
0	26597	2606.772377708542	18.44224248664
0	26777	2625.214620195182	83.866249166809
0	27593	2709.080869361991	36.216389279821
0	27873	2745.297258641812	9.8622147619084
0	27965	2755.15947340372	33.504925962867
0	28329	2788.664399366587	21.792875447612
0	28573	2810.457274814199	1.7869581242467
0	28601	2812.244232938446	12.246344295834
0	28709	2824.49057723428	32.54988231413
0	29077	2857.04045954841	9.086604124987
0	29163	2866.127063673397	13.489568957753
0	29341	2879.61663263115	40.596863046097
0	29775	2920.213495677247	19.209050262803
0	29969	2939.42254594005	15.431155779845
0	30145	2954.853701719895	5.7435319709688
0	30225	2960.597233690864	1.7304556969836
0	30237	2962.327689387848	20.491314256593
0	30465	2982.819003644441	44.719392023031
0	30885	3027.538395667472	19.400927984642
0	31051	3046.939323652114	55.968298348138
0	31527	3102.907622000252	19.76305393324
0	31705	3122.670675933492	47.336491354201
0	32225	3170.007167287693	26.553332880598
0	32477	3196.560500168291	26.485646939288
0	32761	3223.046147107579	48.59633583375
0	33263	3271.642482941329	10.75874251684
0	33389	3282.401225458169	20.206401907809
0	33585	3302.607627365978	19.115401489556
0	33793	3321.723028855534	29.115335923315
0	34105	3350.838364778849	8.2499644346912
0	34175	3359.08832921354	40.641203259456
0	34593	3399.729532472996	13.274857340535
0	34731	3413.004389813531	90.760482742158
0	35565	3503.764872555689	7.9826499307056
0	35657	3511.747522486395	57.143175989082
0	36163	3568.890698475477	21.886134004497
0	36349	3590.776832479974	0.70326865794481
0	36361	3591.480101137919	8.258830752645
0	36455	3599.738931890564	31.565951078084
0	36721	3631.304882968648	4.5963787399973
0	36769	3635.901261708645	13.261634626448
0	36935	3649.162896335093	7.164625497993
0	37005	3656.327521833086	3.1537563794155
0	37049	3659.481278212501	30.131415655216
0	37291	3689.612693867717	11.683041141569
0	37421	3701.295735009286	5.9252299175108
0	37483	3707.220964926797	26.193431410473
0	37773	3733.41439633727	1.9050718597694
0	37793	3735.319468197039	46.591845379824
0	38277	3781.911313576863	22.06594481098
0	38489	3803.977258387843	16.77898289616
0	38609	3820.756241284003	6.589280259857
0	38683	3827.34552154386	7.4634522817102
0	38761	3834.80897382557	0.73360170805934
0	38777	3835.542575533629	23.438707452394
0	39005	3858.981282986023	2.3786635193704
0	39029	3861.359946505393	18.118085200612
0	39247	3879.478031706005	27.344623655848
0	39597	3906.822655361853	27.617332765374
0	39877	3934.439988127227	7.9567856048256
0	39951	3942.396773732053	3.1606340329987
0	39979	3945.557407765052	5.2579769758804
0	40047	3950.815384740932	37.749385712649
0	40437	3988.564770453581	4.2201175718206
0	40509	3992.784888025402	31.940009078981
0	40803	4024.724897104383	6.0430244424843
0	40875	4030.767921546867	12.341036209737
0	41039	4043.108957756604	40.116988185054
0	41467	4083.225945941658	78.130047237806
0	42285	4161.355993179464	2.9935701207543
0	42309	4164.349563300218	13.726935243176
0	42469	4178.076498543394	13.872743031407
0	42599	4191.949241574801	17.785456596638
0	42751	4209.734698171439	3.2923018041124
0	42781	4213.026999975551	39.997511511967
0	43135	4253.024511487518	39.618612711247
0	43553	4292.643124198765	36.257023404581
0	43897	4328.900147603346	16.844772430694
0	44061	4345.74492003404	6.0269811151483
0	44103	4351.771901149188	13.801936199766
0	44225	4365.573837348954	1.1294199951657
0	44245	4366.70325734412	0.22276154497616
0	44249	4366.926018889096	3.3223370406163
0	44279	4370.248355929712	16.341434037932
0	44421	4386.589789967644	0.78070539950342
0	44443	4387.370495367147	0.63037120041162
0	44453	4388.000866567559	119.35979091522
0	45649	4507.360657482779	16.764901981539
0	45823	4524.125559464318	30.251902654963
0	46163	4554.377462119281	88.409439520205
0	47055	4642.786901639486	13.744027436386
0	47191	4656.530929075872	34.824520963679
0	47499	4691.355450039551	6.3864865917174
0	47549	4697.741936631268	29.360155971081
0	47897	4727.102092602349	1.62989938661
0	47917	4728.731991988959	41.823154588368
0	48273	4770.555146577327	0.9691466111456
0	48277	4771.524293188473	22.801269573824
0	48505	4794.325562762297	61.499239093585
0	49059	4855.824801855882	18.976383618613
0	49227	4874.801185474495	0.66319493033338
0	49241	4875.464380404828	7.5243850525303
0	49293	4882.988765457358	14.736617450332
0	49437	4897.72538290769	6.980240296181
0	49465	4904.705623203871	63.112275757758
0	50069	4967.817898961629	9.9235648308838
0	50161	4977.741463792513	14.738198682708
0	50289	4992.479662475221	3.8685884928266
0	50341	4996.348250968048	21.185516102564
0	50549	5017.533767070612	4.2290249430481
0	50603	5021.76279201366	2.8954922166568
0	50645	5024.658284230317	11.477050193959
0	50813	5036.135334424276	10.226571523457
0	50973	5046.361905947733	78.650806661656
0	51731	5125.012712609389	6.4550642904084
0	51817	5131.467776899797	51.03730153608
0	52381	5182.505078435877	18.884887644411
0	52569	5201.389966080288	14.709505423619
0	52721	5216.099471503907	55.31095774631
0	53229	5271.410429250217	7.778391536649
0	53301	5279.188820786866	2.9606648488375
0	53331	5282.149485635703	23.832812229774
0	53549	5305.982297865477	30.556339202778
0	53841	5336.538637068255	44.171833948401
0	54301	5380.710471016656	21.186243564649
0	54505	5401.896714581305	2.2980032429609
0	54549	5404.194717824266	1.5178809260875
0	54565	5405.712598750353	7.6457100971513
0	54665	5413.358308847504	3.1918897789765
0	54709	5416.550198626481	17.258043199886
0	54877	5433.808241826367	72.471304750862
0	55553	5506.279546577229	30.722732766391
0	55865	5537.00227934362	16.656612020393
0	56013	5553.658891364013	7.2819539187577
0	56085	5560.940845282771	4.4197917937975
0	56141	5565.360637076568	16.473398118032
0	56255	5581.8340351946	3.1953180051268
0	56285	5585.029353199727	19.64067734591
0	56529	5604.670030545637	15.902452279381
0	56681	5620.572482825018	3.5306785492084
0	56737	5624.103161374226	51.92209403062
0	57245	5676.025255404846	4.0979919788985
0	57297	5680.123247383744	10.255305164976
0	57417	5690.37855254872	46.214883626389
0	57781	5736.593436175109	29.753963471781
0	58049	5766.34739964689	0.67285465210177
0	58055	5767.020254298992	20.365533584885
0	58281	5787.385787883877	13.386207360421
0	58453	5800.771995244298	13.216567398889
0	58585	5813.988562643187	24.96180846013
0	58861	5838.950371103317	24.163957812878
0	59129	5863.114328916195	60.096168455929
0	59609	5923.210497372124	7.4722542925575
0	59705	5930.682751664681	48.6985302475
0	60265	5979.381281912181	20.997151912248
0	60505	6000.378433824429	14.074771013661
0	60663	6014.45320483809	8.1779867821563
0	60741	6022.631191620246	10.946461351801
0	60893	6033.577652972047	1.7856125377437
0	60915	6035.363265509791	86.032094988874
0	61757	6121.395360498665	15.457322696889
0	61913	6136.852683195554	3.1804825016461
0	61945	6140.0331656972	41.665031937395
0	62377	6181.698197634595	20.93402211863
0	62563	6202.632219753225	1.0028538289947
0	62573	6203.63507358222	1.7414897503071
0	62591	6205.376563332527	16.152332836948
0	62709	6221.528896169475	3.4526635263151
0	62757	6224.98155969579	4.1592337743427
0	62781	6229.140793470133	41.168579905777
0	63177	6270.30937337591	3.1830294175008
0	63223	6273.492402793411	6.7110301534207
0	63281	6280.203432946832	131.35346484747
0	64587	6411.556897794297	7.195680833651
0	64661	6418.752578627948	25.384858790714
0	64863	6444.137437418662	0.69094950873763
0	64875	6444.8283869274	78.936383520639
0	65673	6523.764770448039	20.614252000732
0	65865	6544.379022448771	5.0756770387247
0	65929	6549.454699487496	41.338660008515
0	66329	6590.793359496011	15.857397870598
0	66493	6606.650757366609	7.8614731212915
0	66557	6614.512230487901	70.469228753601
0	67139	6684.981459241502	45.103180538873
0	67641	6730.084639780375	4.3861227111213
0	67685	6734.470762491496	27.643764802786
0	68005	6762.114527294282	63.959396557901
0	68621	6826.073923852183	8.4553755130109
0	68701	6834.529299365194	8.9807292138029
0	68777	6843.510028578997	3.1328004446209
0	68817	6846.642829023618	0.61663639753133
0	68829	6847.259465421149	27.833089270879
0	69125	6875.092554692028	22.644210695688
0	69341	6897.736765387716	24.273569945329
0	69541	6922.010335333045	46.521345918183
0	69999	6968.531681251228	1.9020294532343
0	70029	6970.433710704462	68.528063316786
0	70565	7038.961774021248	4.1326606043268
0	70619	7043.094434625575	2.6258979079548
0	70659	7045.72033253353	5.7402620251325
0	70703	7051.460594558662	18.23838018125
0	70877	7069.698974739912	29.384722789045
0	71203	7099.083697528957	14.049786734688
0	71357	7113.133484263645	2.9808826010422
0	71385	7116.114366864687	50.316952323188
0	71895	7166.431319187875	36.535284511422
0	72261	7202.966603699297	95.214817645423
0	73081	7298.18142134472	27.503364013604
0	73333	7325.684785358324	10.140626929578
0	73493	7335.825412287902	41.36812887338
0	73855	7377.193541161282	2.9423501114096
0	73895	7380.135891272692	19.88621835757
0	74093	7400.022109630262	20.692170480044
0	74309	7420.714280110306	29.515118858444
0	74585	7450.22939896875	9.3480483282134
0	74685	7459.577447296963	3.5521256720894
0	74705	7463.129572969052	11.651374127451
0	74821	7474.780947096503	8.4048040520697
0	74861	7483.185751148573	6.7915858543386
0	74909	7489.977337002912	47.1786367486
0	75345	7537.155973751512	9.7096093771552
0	75413	7546.865583128667	13.903191960041
0	75553	7560.768775088708	1.9418837410869
0	75597	7562.710658829795	25.436600615192
0	75853	7588.147259444987	48.525789884063
0	76317	7636.67304932905	9.910731455377
0	76409	7646.583780784427	7.5197643011707
0	76487	7654.103545085598	13.942766890203
0	76589	7668.046311975801	9.3716362488619
0	76693	7677.417948224663	20.83340436694
0	76885	7698.251352591603	20.688914743542
0	77081	7718.940267335145	3.0811007933597
0	77103	7722.021368128505	33.841284955405
0	77477	7755.86265308391	29.550991202908
0	77841	7785.413644286818	10.663997489584
0	77945	7796.077641776402	9.5710448336122
0	78033	7805.648686610014	8.8095853602918
0	78133	7814.458271970306	29.697441102246
0	78445	7844.155713072552	16.487168443776
0	78605	7860.642881516328	6.1490843157912
0	78637	7866.791965832119	24.996589913832
0	78871	7891.788555745951	44.902596188251
0	79345	7936.691151934202	34.285404677014
0	79681	7970.976556611216	1.0288642859325
0	79685	7972.005420897148	4.9144662301778
0	79713	7976.919887127326	24.403091313447
0	79967	8001.322978440773	41.235572118
0	80405	8042.558550558773	50.120392851567
0	80869	8092.67894341034	0.3825375811688
0	80877	8093.061480991509	7.3398948436124
0	80949	8100.401375835121	9.6855686918136
0	81045	8110.086944526935	3.8404456906003
0	81095	8113.927390217535	2.3204937356345
0	81133	8116.247883953169	9.9385032487269
0	81259	8126.186387201896	3.3719724448588
0	81285	8129.558359646755	16.169134614346
0	81473	8145.727494261101	0.6534684146664
0	81477	8146.380962675767	5.5789098822839
0	81537	8151.959872558051	8.6724998017468
0	81617	8160.632372359798	80.06234962892
0	82423	8240.694721988718	10.775834025071
0	82509	8251.470556013789	11.008952549929
0	82617	8262.479508563718	8.0748838815521
0	82727	8270.55439244527	85.827137994027
0	83549	8356.381530439297	11.165098678499
0	83649	8367.546629117796	11.52449721319
0	83753	8379.071126330986	13.443016877702
0	83877	8392.514143208688	18.120311678112
0	84061	8410.6344548868	88.122748614943
0	84937	8498.757203501743	2.5327373771593
0	84961	8501.289940878902	0.055328732896875
0	84965	8501.345269611799	59.303665639781
0	85677	8560.64893525158	4.8167706173011
0	85743	8565.465705868881	4.4953278908779
0	85773	8569.961033759759	0.63095012986045
0	85785	8570.591983889619	1.8601041927261
0	85813	8572.452088082345	29.246023726236
0	86203	8601.698111808581	30.423485684796
0	86497	8632.121597493377	34.019989659628
0	86845	8666.141587153005	4.2846462731321
0	86879	8670.426233426137	20.757767255492
0	87117	8691.184000681629	3.6943418919286
0	87169	8694.878342573558	13.028145171708
0	87325	8707.906487745266	17.923764608896
0	87493	8725.830252354162	0.18831306142501
0	87497	8726.018565415587	20.011016743642
0	87649	8746.029582159229	11.72922277459
0	87759	8757.758804933819	5.5037592176925
0	87805	8763.262564151512	32.291341830992
0	88141	8795.553905982504	14.659752032363
0	88367	8810.213658014867	0.089542766295227
0	88371	8810.303200781162	4.6753517969254
0	88405	8814.978552578087	35.773049567923
0	88761	8850.75160214601	3.2879679659442
0	88777	8854.039570111954	16.67235016646
0	88913	8870.711920278414	36.298364972047
0	89281	8907.010285250461	9.1415121063049
0	89391	8916.151797356766	60.686740179496
0	89939	8976.838537536262	0.28703476715235
0	89945	8977.125572303414	20.706119545647
0	90199	8997.831691849061	3.897107194512
0	90233	9001.728799043573	18.552900615532
0	90365	9020.281699659105	1.0766491105482
0	90381	9021.358348769653	13.397957104753
0	90485	9034.756305874406	7.5072787779657
0	90557	9042.263584652372	8.8533707248306
0	90653	9051.116955377203	10.22547447823
0	90749	9061.342429855433	46.509144659087
0	91217	9107.85157451452	0.39773376503115
0	91225	9108.249308279551	30.9989892123