file 2921465 1767629711                                         
version 3
run Lognormal-2-20260105-17:15:11-28123
attr configname Lognormal
attr datetime 20260105-17:15:11
attr datetimef 20260105-171511
attr experiment Lognormal
attr inifile omnetpp.ini
attr iterationvars "$N=50, $p=0.3"
attr iterationvarsd N=50/p=0.3
attr iterationvarsf N=50,p=0.3-
attr measurement "$N=50, $p=0.3"
attr network progetto.DatabaseNetwork
attr processid 28123
attr repetition 2
attr replication #2
attr resultdir results
attr runnumber 2
attr seedset 2
itervar N 50
itervar p 0.3
config description "Lognormal distribution (hotspots) - varia N e p"
config *.user[*].tableDistribution "\"lognormal\""
config *.user[*].lognormalM 1.5
config *.user[*].lognormalS 1.0
config *.numUsers 50
config *.user[*].readProbability 0.3
config network progetto.DatabaseNetwork
config sim-time-limit 10000s
config cpu-time-limit 3600s
config repeat 5
config seed-set 2
config output-vector-file "results/Lognormal-$N=50, $p=0.3-2.vec"
config output-scalar-file "results/Lognormal-$N=50, $p=0.3-2.sca"
config result-dir results
config **.vector-recording true
config **.scalar-recording true
config *.numTables 20
config *.user[*].lambda 0.05
config *.user[*].serviceTime 0.1s

vector 0 DatabaseNetwork.user[0] AccessInterval ETV
vector 1 DatabaseNetwork.user[1] AccessInterval ETV
vector 2 DatabaseNetwork.user[2] AccessInterval ETV
vector 3 DatabaseNetwork.user[3] AccessInterval ETV
vector 4 DatabaseNetwork.user[4] AccessInterval ETV
vector 5 DatabaseNetwork.user[5] AccessInterval ETV
vector 6 DatabaseNetwork.user[6] AccessInterval ETV
vector 7 DatabaseNetwork.user[7] AccessInterval ETV
vector 8 DatabaseNetwork.user[8] AccessInterval ETV
vector 9 DatabaseNetwork.user[9] AccessInterval ETV
vector 10 DatabaseNetwork.user[10] AccessInterval ETV
vector 11 DatabaseNetwork.user[11] AccessInterval ETV
vector 12 DatabaseNetwork.user[12] AccessInterval ETV
vector 13 DatabaseNetwork.user[13] AccessInterval ETV
vector 14 DatabaseNetwork.user[14] AccessInterval ETV
vector 15 DatabaseNetwork.user[15] AccessInterval ETV
vector 16 DatabaseNetwork.user[16] AccessInterval ETV
vector 17 DatabaseNetwork.user[17] AccessInterval ETV
vector 18 DatabaseNetwork.user[18] AccessInterval ETV
vector 19 DatabaseNetwork.user[19] AccessInterval ETV
vector 20 DatabaseNetwork.user[20] AccessInterval ETV
vector 21 DatabaseNetwork.user[21] AccessInterval ETV
vector 22 DatabaseNetwork.user[22] AccessInterval ETV
vector 23 DatabaseNetwork.user[23] AccessInterval ETV
vector 24 DatabaseNetwork.user[24] AccessInterval ETV
vector 25 DatabaseNetwork.user[25] AccessInterval ETV
vector 26 DatabaseNetwork.user[26] AccessInterval ETV
vector 27 DatabaseNetwork.user[27] AccessInterval ETV
vector 28 DatabaseNetwork.user[28] AccessInterval ETV
vector 29 DatabaseNetwork.user[29] AccessInterval ETV
vector 30 DatabaseNetwork.user[30] AccessInterval ETV
vector 31 DatabaseNetwork.user[31] AccessInterval ETV
vector 32 DatabaseNetwork.user[32] AccessInterval ETV
vector 33 DatabaseNetwork.user[33] AccessInterval ETV
vector 34 DatabaseNetwork.user[34] AccessInterval ETV
vector 35 DatabaseNetwork.user[35] AccessInterval ETV
vector 36 DatabaseNetwork.user[36] AccessInterval ETV
vector 37 DatabaseNetwork.user[37] AccessInterval ETV
vector 38 DatabaseNetwork.user[38] AccessInterval ETV
vector 39 DatabaseNetwork.user[39] AccessInterval ETV
vector 40 DatabaseNetwork.user[40] AccessInterval ETV
vector 41 DatabaseNetwork.user[41] AccessInterval ETV
vector 42 DatabaseNetwork.user[42] AccessInterval ETV
vector 43 DatabaseNetwork.user[43] AccessInterval ETV
vector 44 DatabaseNetwork.user[44] AccessInterval ETV
vector 45 DatabaseNetwork.user[45] AccessInterval ETV
vector 46 DatabaseNetwork.user[46] AccessInterval ETV
vector 47 DatabaseNetwork.user[47] AccessInterval ETV
vector 48 DatabaseNetwork.user[48] AccessInterval ETV
vector 49 DatabaseNetwork.user[49] AccessInterval ETV
vector 50 DatabaseNetwork.user[2] ReadAccesses ETV
vector 51 DatabaseNetwork.user[2] WaitTime ETV
vector 52 DatabaseNetwork.user[42] ReadAccesses ETV
vector 53 DatabaseNetwork.user[42] WaitTime ETV
vector 54 DatabaseNetwork.user[38] WriteAccesses ETV
vector 55 DatabaseNetwork.user[38] WaitTime ETV
vector 56 DatabaseNetwork.user[46] WriteAccesses ETV
vector 57 DatabaseNetwork.user[46] WaitTime ETV
vector 58 DatabaseNetwork.user[45] WriteAccesses ETV
vector 59 DatabaseNetwork.user[15] WriteAccesses ETV
vector 60 DatabaseNetwork.user[45] WaitTime ETV
vector 61 DatabaseNetwork.user[15] WaitTime ETV
vector 62 DatabaseNetwork.user[48] ReadAccesses ETV
vector 63 DatabaseNetwork.user[48] WaitTime ETV
vector 64 DatabaseNetwork.user[24] WriteAccesses ETV
vector 65 DatabaseNetwork.user[24] WaitTime ETV
vector 66 DatabaseNetwork.user[11] WriteAccesses ETV
vector 67 DatabaseNetwork.user[11] WaitTime ETV
vector 68 DatabaseNetwork.user[37] WriteAccesses ETV
vector 69 DatabaseNetwork.user[37] WaitTime ETV
vector 70 DatabaseNetwork.user[47] WriteAccesses ETV
vector 71 DatabaseNetwork.user[28] WriteAccesses ETV
vector 72 DatabaseNetwork.user[1] WriteAccesses ETV
vector 73 DatabaseNetwork.user[47] WaitTime ETV
vector 74 DatabaseNetwork.user[28] WaitTime ETV
vector 75 DatabaseNetwork.user[1] WaitTime ETV
vector 76 DatabaseNetwork.user[12] WriteAccesses ETV
vector 77 DatabaseNetwork.user[12] WaitTime ETV
vector 78 DatabaseNetwork.user[2] WriteAccesses ETV
vector 79 DatabaseNetwork.user[31] WriteAccesses ETV
vector 80 DatabaseNetwork.user[31] WaitTime ETV
vector 81 DatabaseNetwork.user[18] WriteAccesses ETV
vector 82 DatabaseNetwork.user[18] WaitTime ETV
vector 83 DatabaseNetwork.user[43] WriteAccesses ETV
vector 84 DatabaseNetwork.user[43] WaitTime ETV
vector 85 DatabaseNetwork.user[41] ReadAccesses ETV
vector 86 DatabaseNetwork.user[16] WriteAccesses ETV
vector 87 DatabaseNetwork.user[41] WaitTime ETV
vector 88 DatabaseNetwork.user[16] WaitTime ETV
vector 89 DatabaseNetwork.user[9] WriteAccesses ETV
vector 90 DatabaseNetwork.user[9] WaitTime ETV
vector 91 DatabaseNetwork.user[10] WriteAccesses ETV
vector 92 DatabaseNetwork.user[10] WaitTime ETV
vector 93 DatabaseNetwork.user[37] ReadAccesses ETV
vector 94 DatabaseNetwork.user[35] WriteAccesses ETV
vector 95 DatabaseNetwork.user[35] WaitTime ETV
vector 96 DatabaseNetwork.user[8] WriteAccesses ETV
vector 97 DatabaseNetwork.user[8] WaitTime ETV
vector 98 DatabaseNetwork.user[44] WriteAccesses ETV
vector 99 DatabaseNetwork.user[44] WaitTime ETV
vector 100 DatabaseNetwork.user[6] WriteAccesses ETV
vector 101 DatabaseNetwork.user[0] WriteAccesses ETV
vector 102 DatabaseNetwork.user[6] WaitTime ETV
vector 103 DatabaseNetwork.user[0] WaitTime ETV
vector 104 DatabaseNetwork.user[7] WriteAccesses ETV
vector 105 DatabaseNetwork.user[17] ReadAccesses ETV
vector 106 DatabaseNetwork.user[7] WaitTime ETV
vector 107 DatabaseNetwork.user[17] WaitTime ETV
vector 108 DatabaseNetwork.user[34] WriteAccesses ETV
vector 109 DatabaseNetwork.user[49] ReadAccesses ETV
vector 110 DatabaseNetwork.user[34] WaitTime ETV
vector 111 DatabaseNetwork.user[49] WaitTime ETV
vector 112 DatabaseNetwork.user[25] WriteAccesses ETV
vector 113 DatabaseNetwork.user[25] WaitTime ETV
vector 114 DatabaseNetwork.user[40] WriteAccesses ETV
vector 115 DatabaseNetwork.user[40] WaitTime ETV
vector 116 DatabaseNetwork.user[26] WriteAccesses ETV
vector 117 DatabaseNetwork.user[26] WaitTime ETV
vector 118 DatabaseNetwork.user[22] ReadAccesses ETV
vector 119 DatabaseNetwork.user[22] WaitTime ETV
vector 120 DatabaseNetwork.user[33] ReadAccesses ETV
vector 121 DatabaseNetwork.user[33] WaitTime ETV
vector 122 DatabaseNetwork.user[4] WriteAccesses ETV
vector 123 DatabaseNetwork.user[4] WaitTime ETV
vector 124 DatabaseNetwork.user[48] WriteAccesses ETV
vector 125 DatabaseNetwork.user[27] ReadAccesses ETV
vector 126 DatabaseNetwork.user[27] WaitTime ETV
vector 127 DatabaseNetwork.user[14] ReadAccesses ETV
vector 128 DatabaseNetwork.user[20] WriteAccesses ETV
vector 129 DatabaseNetwork.user[14] WaitTime ETV
vector 130 DatabaseNetwork.user[20] WaitTime ETV
vector 131 DatabaseNetwork.user[43] ReadAccesses ETV
vector 132 DatabaseNetwork.user[22] WriteAccesses ETV
vector 133 DatabaseNetwork.user[19] WriteAccesses ETV
vector 134 DatabaseNetwork.user[19] WaitTime ETV
vector 135 DatabaseNetwork.user[6] ReadAccesses ETV
vector 136 DatabaseNetwork.user[17] WriteAccesses ETV
vector 137 DatabaseNetwork.user[23] ReadAccesses ETV
vector 138 DatabaseNetwork.user[23] WaitTime ETV
vector 139 DatabaseNetwork.user[46] ReadAccesses ETV
vector 140 DatabaseNetwork.user[13] WriteAccesses ETV
vector 141 DatabaseNetwork.user[13] WaitTime ETV
vector 142 DatabaseNetwork.user[29] WriteAccesses ETV
vector 143 DatabaseNetwork.user[29] WaitTime ETV
vector 144 DatabaseNetwork.user[49] WriteAccesses ETV
vector 145 DatabaseNetwork.user[30] WriteAccesses ETV
vector 146 DatabaseNetwork.user[30] WaitTime ETV
vector 147 DatabaseNetwork.user[25] ReadAccesses ETV
vector 148 DatabaseNetwork.user[9] ReadAccesses ETV
vector 149 DatabaseNetwork.user[21] WriteAccesses ETV
vector 150 DatabaseNetwork.user[21] WaitTime ETV
vector 151 DatabaseNetwork.user[14] WriteAccesses ETV
vector 152 DatabaseNetwork.user[45] ReadAccesses ETV
vector 153 DatabaseNetwork.user[36] WriteAccesses ETV
vector 154 DatabaseNetwork.user[36] WaitTime ETV
vector 155 DatabaseNetwork.user[32] WriteAccesses ETV
vector 156 DatabaseNetwork.user[32] WaitTime ETV
vector 157 DatabaseNetwork.user[40] ReadAccesses ETV
vector 158 DatabaseNetwork.user[21] ReadAccesses ETV
vector 159 DatabaseNetwork.user[29] ReadAccesses ETV
vector 160 DatabaseNetwork.user[38] ReadAccesses ETV
vector 161 DatabaseNetwork.user[3] WriteAccesses ETV
vector 162 DatabaseNetwork.user[3] WaitTime ETV
vector 163 DatabaseNetwork.user[13] ReadAccesses ETV
vector 164 DatabaseNetwork.user[0] ReadAccesses ETV
vector 165 DatabaseNetwork.user[34] ReadAccesses ETV
vector 166 DatabaseNetwork.user[41] WriteAccesses ETV
vector 167 DatabaseNetwork.user[5] ReadAccesses ETV
vector 168 DatabaseNetwork.user[5] WaitTime ETV
vector 169 DatabaseNetwork.user[3] ReadAccesses ETV
vector 170 DatabaseNetwork.user[10] ReadAccesses ETV
vector 171 DatabaseNetwork.user[33] WriteAccesses ETV
vector 172 DatabaseNetwork.user[35] ReadAccesses ETV
vector 173 DatabaseNetwork.user[5] WriteAccesses ETV
vector 174 DatabaseNetwork.user[23] WriteAccesses ETV
vector 175 DatabaseNetwork.user[39] ReadAccesses ETV
vector 176 DatabaseNetwork.user[39] WaitTime ETV
vector 177 DatabaseNetwork.user[39] WriteAccesses ETV
vector 178 DatabaseNetwork.user[30] ReadAccesses ETV
vector 179 DatabaseNetwork.user[27] WriteAccesses ETV
vector 180 DatabaseNetwork.user[16] ReadAccesses ETV
vector 181 DatabaseNetwork.user[7] ReadAccesses ETV
vector 182 DatabaseNetwork.user[18] ReadAccesses ETV
vector 183 DatabaseNetwork.user[36] ReadAccesses ETV
vector 184 DatabaseNetwork.user[28] ReadAccesses ETV
vector 185 DatabaseNetwork.user[19] ReadAccesses ETV
vector 186 DatabaseNetwork.user[42] WriteAccesses ETV
vector 187 DatabaseNetwork.user[4] ReadAccesses ETV
vector 188 DatabaseNetwork.user[44] ReadAccesses ETV
vector 189 DatabaseNetwork.user[26] ReadAccesses ETV
vector 190 DatabaseNetwork.user[15] ReadAccesses ETV
vector 191 DatabaseNetwork.user[32] ReadAccesses ETV
vector 192 DatabaseNetwork.user[31] ReadAccesses ETV
vector 193 DatabaseNetwork.user[24] ReadAccesses ETV
vector 194 DatabaseNetwork.user[8] ReadAccesses ETV
vector 195 DatabaseNetwork.user[11] ReadAccesses ETV
vector 196 DatabaseNetwork.user[12] ReadAccesses ETV
vector 197 DatabaseNetwork.user[1] ReadAccesses ETV
vector 198 DatabaseNetwork.user[47] ReadAccesses ETV
vector 199 DatabaseNetwork.user[20] ReadAccesses ETV
0	11581 20787 0 99917 0 9985.036654437139 501 0.055328732896875 131.35346484747 10000.037594165 416922.81646103
1	32368 21246 0 99973 0 9991.863566646104 510 0.0093349850130101 105.73792872625 10002.946031039 378541.88858546
2	53614 20814 0 99969 0 9990.822778174567 501 0.006671636079354 122.43301383314 10000.805167745 402105.36602482
3	74428 22506 0 99979 0 9992.527773103554 541 0.024076723172288 95.789422137469 10029.520994442 356208.7264057
4	96934 20841 0 99851 0 9978.655653803697 501 0.0081008638654811 124.05084326256 10090.195201732 384808.9816491
5	117775 18453 0 99647 0 9958.019060753534 444 0.12104254734967 184.64871073723 10002.475158573 467696.18023661
6	136228 22118 0 99541 0 9946.646254905848 532 0.052575016523552 148.48838426469 10026.20537745 362276.40606197
7	158346 21098 0 99817 0 9976.335272497677 508 0.017334165460247 125.11895387978 10015.381643687 377268.41509959
8	179444 21044 0 99953 0 9988.400311217515 506 0.028776105048933 146.82334337571 10003.399905324 384248.87083549
9	200488 20832 0 99845 0 9978.502135748632 501 0.070646214778403 131.82110323449 10033.888456107 394231.57386405
10	221320 20651 0 100021 0 9998.700818027411 485 0.0011807376732707 143.2684264535 10000.180201406 400283.0250502
11	241971 22416 0 100011 0 9996.248359614293 527 0.039588033028555 103.41705510005 10005.92419518 378940.5194946
12	264387 20592 0 99761 0 9971.165101055764 484 0.03159204245686 180.6853722207 10049.594896703 451635.33558989
13	284979 19484 0 100033 0 9999.859666740273 458 0.018003129142311 121.32245550146 10030.218927294 441841.68809235
14	304463 22946 0 99733 0 9968.204102723239 539 0.090056077923265 111.36785385898 10020.01141949 369495.58976677
15	327409 22422 0 99509 0 9942.951016555797 526 0.0024053410641415 118.39318054545 10004.075669714 355711.67485233
16	349831 22133 0 99905 0 9984.303542605999 519 0.024808010732053 136.10814655659 10017.883725901 382139.9664173
17	371964 22561 0 99925 0 9985.706073942231 531 0.0024718362899742 100.60732406091 10031.218624198 347044.68343013
18	394525 20138 0 99877 0 9981.332755184212 474 0.014479967685213 123.23258523283 10014.32167308 389997.24882745
19	414663 19804 0 99909 0 9984.479993601085 466 0.019720863885406 135.87269473336 10007.248997399 429205.84874149
20	434467 20609 0 99861 0 9979.308258007333 484 0.084756971381987 124.13377350533 10006.551155196 403341.79481949
21	455076 22385 0 100003 0 9995.529940185233 526 0.013210087399531 120.8070043476 10021.786356884 367643.61354534
22	477461 21895 0 99835 0 9977.011483812763 515 0.016065870217381 99.921665086328 10011.093563285 355461.66273291
23	499356 21325 0 99949 0 9987.592366997662 501 0.010646453215402 150.69032973259 10001.774092081 394678.45457317
24	520681 21334 0 99425 0 9931.93430331136 500 0.062957440108611 111.5976432057 10029.01011942 393303.45348033
25	542015 20767 0 99749 0 9969.338155529664 488 0.014248968879297 134.84428963037 10008.010360855 418640.33743576
26	562782 21838 0 99721 0 9964.54080303598 514 0.075433364218743 141.98353102258 10048.110152496 402392.41434784
27	584620 19000 0 100029 0 9999.47196144913 447 0.0094158989867141 114.16182013067 10008.847094362 416797.16864162
28	603620 22082 0 100009 0 9996.218954580985 519 0.025454928156919 147.92555417049 10009.037641334 400105.4764243
29	625702 19520 0 100017 0 9997.50851387198 459 0.0083763041967624 162.50255515238 10018.237233904 450597.73038747
30	645222 21359 0 99985 0 9993.677473794844 502 0.049590159850486 145.77784375094 10023.912639235 402675.50081611
31	666581 19516 0 100025 0 9999.188190008633 458 0.086364465121311 155.02686225897 10001.856939014 455519.84516499
32	686097 21511 0 99801 0 9975.497082504346 505 0.0061519964086966 126.39687114564 10004.794336606 423557.35617291
33	707608 23163 0 99621 0 9954.389128543133 544 0.003792067039462 103.00804123098 10003.818789566 360469.44575044
34	730771 21665 0 99945 0 9986.860040498606 509 0.0096091145687741 117.14607531913 10007.403124155 374907.18788134
35	752436 21596 0 99977 0 9992.485521528041 507 0.10003682773786 136.91679712405 10011.171864499 410433.46640901
36	774032 20476 0 99697 0 9962.292076961249 481 0.019523854290852 123.03327887587 10075.882761805 413875.58331683
37	794508 22490 0 99935 0 9986.209857312786 529 0.063184527032 101.4057904876 10051.680401222 386713.62558751
38	816998 22435 0 99997 0 9995.38919539722 526 0.024594558216665 109.47376666667 10002.773926619 380340.57775517
39	839433 21486 0 99957 0 9989.270747438049 504 0.031937249492462 131.04437044554 10004.869501746 391092.98852232
40	860919 20456 0 99899 0 9984.141077251133 480 0.042171815120014 150.99100752428 10040.192416105 408295.37602832
41	881375 20088 0 99873 0 9981.051361264629 472 0.0077673227493106 126.06590635187 10007.052720562 396332.19438937
42	901463 21872 0 99813 0 9975.881412917333 514 0.052546083556771 145.31976887497 10085.620653138 418602.54463308
43	923335 20954 0 99803 0 9975.583742491894 492 0.056691179743236 124.0443687352 10038.108341455 401012.5685678
44	944289 19714 0 99569 0 9950.138591513122 463 0.0097342423724849 133.99978953529 10023.181868765 428201.91295236
45	964003 22726 0 99921 0 9985.428884117157 534 0.0010222690663683 174.45314655256 10030.080508533 407104.28490193
46	986729 21257 0 99889 0 9983.155814498831 499 0.02086641155883 208.1880980109 10027.023587405 435108.12572167
47	1007986 23175 0 99989 0 9993.883082383209 544 0.030346086546681 84.403177319603 10012.146037203 342431.41582316
48	1031161 20920 0 99885 0 9981.994017286144 491 0.071105986751129 110.25698313087 10051.536610444 393964.30220401
49	1052081 21215 0 100001 0 9995.509866510202 498 0.0058600508818419 131.41728473755 10042.038378848 371421.07521104
50	1073296 4151 1 99551 0.525364736932 9947.35556809405 145 1 1 145 145
51	1077447 21970 4 99972 0.625364736932 9990.922778174567 500 0.099999999998545 0.2281811769758 50.641817552268 5.1813390054124
52	1099417 4793 5 99813 1.350304353086 9975.881412917333 168 1 1 168 168
53	1104210 22566 8 99816 1.450304353086 9975.981412917333 513 0.099999999998545 0.18548922258833 51.67502978691 5.228794621054
54	1126776 10417 9 99997 1.65992651012 9995.38919539722 363 1 1 363 363
55	1137193 23135 12 100000 1.75992651012 9995.48919539722 525 0.099999999998545 0.2124149707106 53.030336914931 5.3896473468705
56	1160328 9674 13 99889 2.030267873818 9983.155814498831 337 1 1 337 337
57	1170002 21985 16 99892 2.130267873818 9983.255814498831 498 0.099999999998545 0.18928580143256 50.220583446985 5.0933607481912
58	1191987 11168 17 99789 2.470338621905 9974.669920614944 390 1 1 390 390
59	1203155 10359 19 99477 2.555543458514 9937.619566561221 361 1 1 361 361
60	1213514 23409 22 99924 2.570338621905 9985.528884117157 533 0.099999999998545 0.1999319436527 53.842345189732 5.4799901557371
61	1236923 23161 24 99512 2.655543458514 9943.051016555797 525 0.099999999998545 0.18502095043732 52.932523682434 5.3646188857742
62	1260084 3749 25 99321 2.72005967253 9922.358565695424 131 1 1 131 131
63	1263833 21577 28 99888 2.82005967253 9982.094017286144 490 0.099999999998545 0.1892036905283 49.425275399185 5.0168032506351
64	1285410 10109 29 99425 2.890805482373 9931.93430331136 352 1 1 352 352
65	1295519 22027 32 99428 2.990805482373 9932.03430331136 499 0.099999999998545 0.19483400490026 50.348923986733 5.1123267958608
66	1317546 10527 33 99773 3.354807823798 9972.026900664966 367 1 1 367 367
67	1328073 23191 36 100016 3.454807823798 9996.348359614293 526 0.099999999998545 0.19434540529619 53.193166244315 5.4176593161083
68	1351264 10651 37 99561 3.895607906725 9949.446511817361 372 1 1 372 372
69	1361915 23196 40 99942 3.995607906725 9986.309857312786 528 0.099999999998545 0.16542870853482 53.024166730731 5.3347802826625
70	1385111 11580 41 99989 4.011186056206 9993.883082383209 404 1 1 404 404
71	1396691 10483 43 100009 4.077602339223 9996.218954580985 366 1 1 366 366
72	1407174 9603 45 99585 4.093357685528 9951.652487140313 334 1 1 334 334
73	1416777 23935 48 99992 4.111186056206 9993.983082383209 543 0.099999999998545 0.26597367035208 54.806527892995 5.5788964233595
74	1440712 22781 50 100014 4.177602339223 9996.318954580985 518 0.099999999998545 0.23878031257846 52.779858574079 5.4498388445031
75	1463493 22470 52 99976 4.193357685528 9991.963566646104 509 0.099999999998545 0.17075056750309 51.276540094884 5.1848961151454
76	1485963 9329 53 99385 4.579425894643 9928.329716909779 326 1 1 326 326
77	1495292 21224 56 99764 4.679425894643 9971.265101055764 483 0.099999999998545 0.18945604124929 48.698181099987 4.9306974942141
78	1516516 10184 57 99969 5.541702933421 9990.822778174567 355 1 1 355 355
79	1526700 9275 63 99809 5.981550600929 9975.767383826091 323 1 1 323 323
80	1535975 20169 68 100028 6.081550600929 9999.288190008633 457 0.099999999998545 0.19699651847122 46.124071739436 4.6807178154391
81	1556144 9466 69 99877 6.207479312421 9981.332755184212 331 1 1 331 331
82	1565610 20828 72 99880 6.307479312421 9981.432755184212 473 0.099999999998545 0.19683334857291 47.541604993439 4.7961394818914
83	1586438 10012 73 99803 6.789862856486 9975.583742491894 349 1 1 349 349
84	1596450 21635 76 99808 6.889862856486 9975.683742491894 491 0.099999999998545 0.17542329511093 49.410173682644 4.9888326794721
85	1618085 4436 77 99725 7.048490079721 9966.896712963048 155 1 1 155 155
86	1622521 10137 79 99905 7.123634948101 9984.303542605999 353 1 1 353 353
87	1632658 20756 82 99876 7.148490079721 9981.151361264629 471 0.099999999998545 0.18557550421701 47.530912423948 4.8226145985089
88	1653414 22850 84 99908 7.223634948101 9984.403542605999 518 0.099999999998545 0.19730542535899 52.276367468815 5.3105111889948
89	1676264 10433 85 99845 7.729033380436 9978.502135748632 364 1 1 364 364
90	1686697 21984 88 99848 7.829033380436 9978.602135748632 500 0.099999999998545 0.19366955594523 50.509606387319 5.1392972167578
91	1708681 9492 89 100021 8.019548466481 9998.700818027411 331 1 1 331 331
92	1718173 21334 92 100024 8.119548466481 9998.800818027411 484 0.099999999998545 0.19370568702743 48.676468307442 4.9135187822017
93	1739507 4449 93 99935 9.883500415491 9986.209857312786 156 1 1 156 156
94	1743956 10177 97 99977 10.461602504546 9992.485521528041 355 1 1 355 355
95	1754133 22292 104 99982 10.561602504546 9992.585521528041 506 0.099999999998545 0.18563406716794 50.889264536651 5.1360294077219
96	1776425 10152 111 99953 10.907230344359 9988.400311217515 354 1 1 354 354
97	1786577 22256 116 99956 11.007230344359 9988.500311217515 505 0.099999999998545 0.1820989907842 50.726073426428 5.1078493262357
98	1808833 9199 117 99569 11.176603522625 9950.138591513122 321 1 1 321 321
99	1818032 20325 120 99572 11.276603522625 9950.238591513122 462 0.099999999998545 0.19846694576427 47.104528594783 4.8579065109409
100	1838357 10703 121 99541 11.430006362468 9946.646254905848 361 1 1 361 361
101	1849060 10704 123 99917 11.453839792544 9985.036654437139 362 1 1 362 362
102	1859764 23932 126 99544 11.530006362468 9946.746254905848 531 0.099999999998545 0.1935876041789 53.528789310212 5.4230933996027
103	1883696 22491 128 99920 11.553839792544 9985.136654437139 500 0.099999999998545 0.19569973682701 50.4940441694 5.1339780211603
104	1906187 10637 133 99529 13.262026102764 9945.590673148077 359 1 1 359 359
105	1916824 4814 135 99925 13.278600377286 9985.706073942231 163 1 1 163 163
106	1921638 22872 138 99820 13.362026102764 9976.435272497677 507 0.099999999998545 0.17295758436467 51.00691540954 5.1459547221208
107	1944510 23769 140 99928 13.378600377286 9985.806073942231 530 0.099999999998545 0.19027284829008 53.631911460645 5.469880499263
108	1968279 10213 141 99945 13.633735666083 9986.860040498606 344 1 1 344 344
109	1978492 4592 143 99965 13.635828752389 9990.493591116699 155 1 1 155 155
110	1983084 22871 146 99948 13.733735666083 9986.960040498606 508 0.099999999998545 0.19480857404483 51.023393522676 5.1407940560732
111	2005955 22430 148 100006 13.735828752389 9995.609866510202 497 0.099999999998545 0.18635226652987 50.249835825145 5.1174029942605
112	2028385 10117 149 99749 13.805472967174 9969.338155529664 341 1 1 341 341
113	2038502 21917 152 99756 13.905472967174 9969.438155529664 487 0.099999999998545 0.17204125256467 48.845295588303 4.9069042158533
114	2060419 9860 153 99899 14.073895784098 9984.141077251133 332 1 1 332 332
115	2070279 21604 156 99904 14.173895784098 9984.241077251133 479 0.099999999998545 0.13719546324501 47.991441486506 4.8112865015944
116	2091883 11127 157 99677 14.413579226361 9960.481128991454 376 1 1 376 376
117	2103010 23050 160 99724 14.513579226361 9964.64080303598 513 0.099999999998545 0.18801272879318 51.674644436354 5.2283501606669
118	2126060 4852 161 99821 15.063978170199 9976.60843012854 164 1 1 164 164
119	2130912 23115 164 99840 15.163978170199 9977.111483812763 514 0.099999999998545 0.18528611978172 51.923460445398 5.2769426731635
120	2154027 5083 169 99621 15.802296588066 9954.389128543133 171 1 1 171 171
121	2159110 24479 172 99624 15.902296588066 9954.489128543133 543 0.099999999998545 0.18994527906989 54.595665260913 5.5073601181849
122	2183589 10390 173 99851 15.955158478006 9978.655653803697 350 1 1 350 350
123	2193979 22556 176 99856 16.055158478006 9978.755653803697 500 0.099999999998545 0.19963894027751 50.335157783985 5.0928737718271
124	2216535 10679 183 99885 17.233104985481 9981.994017286144 359 1 1 359 359
125	2227214 3545 193 100029 17.676324608463 9999.47196144913 120 1 1 120 120
126	2230759 20080 196 100032 17.776324608463 9999.57196144913 446 0.099999999998545 0.19773760160399 44.914891922004 4.5447523219591
127	2250839 4597 213 96529 19.313347302846 9646.344682151693 155 1 1 155 155
128	2255436 10115 215 99653 19.411445162826 9958.801410741673 341 1 1 341 341
129	2265551 24236 218 99736 19.413347302846 9968.304102723239 538 0.099999999998545 0.19255572358702 54.434183021957 5.5452780662886
130	2289787 21772 220 99864 19.511445162826 9979.408258007333 483 0.099999999998545 0.18766134358611 48.861526273225 4.9810203292579
131	2311559 4212 223 96357 19.907729138827 9627.329158144623 142 1 1 142 142
132	2315771 10370 227 99835 19.925965110103 9977.011483812763 350 1 1 350 350
133	2326141 9415 235 99909 20.033581114353 9984.479993601085 318 1 1 318 318
134	2335556 20886 240 99912 20.133581114353 9984.579993601085 465 0.099999999998545 0.19542866124095 46.924230898702 4.7628633055716
135	2356442 5048 245 99437 22.04195037675 9932.446024866526 170 1 1 170 170
136	2361490 10873 253 99683 22.667513398832 9961.023329690796 367 1 1 367 367
137	2372363 4422 257 97903 22.978710234746 9782.447258168954 149 1 1 149 149
138	2376785 22561 260 99952 23.078710234746 9987.692366997662 500 0.099999999998545 0.1949214096212 50.331972493008 5.0867537034621
139	2399346 4778 261 97375 23.271990122338 9733.829568548797 161 1 1 161 161
140	2404124 9836 269 99993 24.003778731456 9994.44701931058 332 1 1 332 332
141	2413960 20562 272 100036 24.103778731456 9999.959666740273 457 0.099999999998545 0.19837985900813 46.163055037127 4.6933324754907
142	2434522 8976 285 99693 25.44176628254 9961.573389398309 303 1 1 303 303
143	2443498 20593 288 100020 25.54176628254 9997.60851387198 458 0.099999999998545 0.19871659147975 46.177123716437 4.6855215490378
144	2464091 10162 305 100001 28.827742050343 9995.509866510202 342 1 1 342 342
145	2474253 10763 321 99985 30.773545855284 9993.677473794844 363 1 1 363 363
146	2485016 22572 324 99988 30.873545855284 9993.777473794844 501 0.099999999998545 0.18646654336044 50.862147070969 5.20891570712
147	2507588 4316 325 98661 30.916608825114 9856.304675689394 146 1 1 146 146
148	2511904 4036 337 99357 32.570644823218 9925.649767981591 136 1 1 136 136
149	2515940 11092 359 100003 34.099901882417 9995.529940185233 374 1 1 374 374
150	2527032 23652 364 100008 34.199901882417 9995.629940185233 525 0.099999999998545 0.19746151732397 53.357499043446 5.4788231276131
151	2550684 11360 365 99733 34.406190897329 9968.204102723239 383 1 1 383 383
152	2562044 4234 377 99921 35.601701093258 9985.428884117157 143 1 1 143 143
153	2566278 9876 393 99697 37.489107734394 9962.292076961249 333 1 1 333 333
154	2576154 21622 396 99700 37.589107734394 9962.392076961249 480 0.099999999998545 0.19324010510718 48.317113405302 4.8847492836434
155	2597776 10840 409 99801 38.479588623406 9975.497082504346 365 1 1 365 365
156	2608616 22753 412 99806 38.579588623406 9975.597082504346 504 0.099999999998545 0.19581310120338 51.026323394791 5.2033685670796
157	2631369 4372 431 97625 42.505434166599 9758.185980810578 147 1 1 147 147
158	2635741 4478 461 98201 45.384918785011 9815.85981258472 151 1 1 151 151
159	2640219 4591 489 100017 48.77323596828 9997.50851387198 155 1 1 155 155
160	2644810 4815 519 99777 52.944495392701 9972.78480822044 162 1 1 162 162
161	2649625 11248 537 99979 53.63036520913 9992.527773103554 379 1 1 379 379
162	2660873 24373 544 99984 53.73036520913 9992.627773103554 540 0.099999999998545 0.19691007958772 54.434728703394 5.519140330953
163	2685246 3717 549 100033 54.197561443256 9999.859666740273 125 1 1 125 125
164	2688963 4095 553 99041 54.329107164505 9896.70440872633 138 1 1 138 138
165	2693058 4849 565 99469 55.743218987978 9936.377197535125 164 1 1 164 164
166	2697907 9378 573 99873 56.401739618675 9981.051361264629 316 1 1 316 316
167	2707285 4236 607 99647 59.026887453549 9958.019060753534 143 1 1 143 143
168	2711521 20007 612 99652 59.126887453549 9958.119060753534 443 0.099999999998545 0.21549826024693 44.810365696587 4.5692377726351
169	2731528 4783 613 99961 59.372534961919 9989.486276631219 161 1 1 161 161
170	2736311 4535 617 98869 60.294874630432 9879.387232973511 153 1 1 153 153
171	2740846 11028 629 99481 60.905974205642 9938.985806105693 372 1 1 372 372
172	2751874 4487 669 99577 63.749507266294 9950.538786301968 151 1 1 151 151
173	2756361 8905 689 99229 64.867299160661 9912.83379575179 300 1 1 300 300
174	2765266 10409 739 99949 69.114494846909 9987.592366997662 351 1 1 351 351
175	2775675 4770 745 99957 69.887585606519 9989.270747438049 161 1 1 161 161
176	2780445 22694 748 99960 69.987585606519 9989.370747438049 503 0.099999999998545 0.17085850282092 50.65935214032 5.1226992519296
177	2803139 10160 757 99893 70.616404743438 9983.26720571474 342 1 1 342 342
178	2813299 4096 769 98295 71.824959234788 9824.621348033166 138 1 1 138 138
179	2817395 9651 781 99039 72.731432656116 9896.672205135488 326 1 1 326 326