file 5999196 1767629717                                         
version 3
run Lognormal-66-20260105-17:15:17-28123
attr configname Lognormal
attr datetime 20260105-17:15:17
attr datetimef 20260105-171517
attr experiment Lognormal
attr inifile omnetpp.ini
attr iterationvars "$N=100, $p=0.8"
attr iterationvarsd N=100/p=0.8
attr iterationvarsf N=100,p=0.8-
attr measurement "$N=100, $p=0.8"
attr network progetto.DatabaseNetwork
attr processid 28123
attr repetition 1
attr replication #1
attr resultdir results
attr runnumber 66
attr seedset 1
itervar N 100
itervar p 0.8
config description "Lognormal distribution (hotspots) - varia N e p"
config *.user[*].tableDistribution "\"lognormal\""
config *.user[*].lognormalM 1.5
config *.user[*].lognormalS 1.0
config *.numUsers 100
config *.user[*].readProbability 0.8
config network progetto.DatabaseNetwork
config sim-time-limit 10000s
config cpu-time-limit 3600s
config repeat 5
config seed-set 1
config output-vector-file "results/Lognormal-$N=100, $p=0.8-1.vec"
config output-scalar-file "results/Lognormal-$N=100, $p=0.8-1.sca"
config result-dir results
config **.vector-recording true
config **.scalar-recording true
config *.numTables 20
config *.user[*].lambda 0.05
config *.user[*].serviceTime 0.1s

vector 0 DatabaseNetwork.user[0] AccessInterval ETV
vector 1 DatabaseNetwork.user[1] AccessInterval ETV
vector 2 DatabaseNetwork.user[2] AccessInterval ETV
vector 3 DatabaseNetwork.user[3] AccessInterval ETV
vector 4 DatabaseNetwork.user[4] AccessInterval ETV
vector 5 DatabaseNetwork.user[5] AccessInterval ETV
vector 6 DatabaseNetwork.user[6] AccessInterval ETV
vector 7 DatabaseNetwork.user[7] AccessInterval ETV
vector 8 DatabaseNetwork.user[8] AccessInterval ETV
vector 9 DatabaseNetwork.user[9] AccessInterval ETV
vector 10 DatabaseNetwork.user[10] AccessInterval ETV
vector 11 DatabaseNetwork.user[11] AccessInterval ETV
vector 12 DatabaseNetwork.user[12] AccessInterval ETV
vector 13 DatabaseNetwork.user[13] AccessInterval ETV
vector 14 DatabaseNetwork.user[14] AccessInterval ETV
vector 15 DatabaseNetwork.user[15] AccessInterval ETV
vector 16 DatabaseNetwork.user[16] AccessInterval ETV
vector 17 DatabaseNetwork.user[17] AccessInterval ETV
vector 18 DatabaseNetwork.user[18] AccessInterval ETV
vector 19 DatabaseNetwork.user[19] AccessInterval ETV
vector 20 DatabaseNetwork.user[20] AccessInterval ETV
vector 21 DatabaseNetwork.user[21] AccessInterval ETV
vector 22 DatabaseNetwork.user[22] AccessInterval ETV
vector 23 DatabaseNetwork.user[23] AccessInterval ETV
vector 24 DatabaseNetwork.user[24] AccessInterval ETV
vector 25 DatabaseNetwork.user[25] AccessInterval ETV
vector 26 DatabaseNetwork.user[26] AccessInterval ETV
vector 27 DatabaseNetwork.user[27] AccessInterval ETV
vector 28 DatabaseNetwork.user[28] AccessInterval ETV
vector 29 DatabaseNetwork.user[29] AccessInterval ETV
vector 30 DatabaseNetwork.user[30] AccessInterval ETV
vector 31 DatabaseNetwork.user[31] AccessInterval ETV
vector 32 DatabaseNetwork.user[32] AccessInterval ETV
vector 33 DatabaseNetwork.user[33] AccessInterval ETV
vector 34 DatabaseNetwork.user[34] AccessInterval ETV
vector 35 DatabaseNetwork.user[35] AccessInterval ETV
vector 36 DatabaseNetwork.user[36] AccessInterval ETV
vector 37 DatabaseNetwork.user[37] AccessInterval ETV
vector 38 DatabaseNetwork.user[38] AccessInterval ETV
vector 39 DatabaseNetwork.user[39] AccessInterval ETV
vector 40 DatabaseNetwork.user[40] AccessInterval ETV
vector 41 DatabaseNetwork.user[41] AccessInterval ETV
vector 42 DatabaseNetwork.user[42] AccessInterval ETV
vector 43 DatabaseNetwork.user[43] AccessInterval ETV
vector 44 DatabaseNetwork.user[44] AccessInterval ETV
vector 45 DatabaseNetwork.user[45] AccessInterval ETV
vector 46 DatabaseNetwork.user[46] AccessInterval ETV
vector 47 DatabaseNetwork.user[47] AccessInterval ETV
vector 48 DatabaseNetwork.user[48] AccessInterval ETV
vector 49 DatabaseNetwork.user[49] AccessInterval ETV
vector 50 DatabaseNetwork.user[50] AccessInterval ETV
vector 51 DatabaseNetwork.user[51] AccessInterval ETV
vector 52 DatabaseNetwork.user[52] AccessInterval ETV
vector 53 DatabaseNetwork.user[53] AccessInterval ETV
vector 54 DatabaseNetwork.user[54] AccessInterval ETV
vector 55 DatabaseNetwork.user[55] AccessInterval ETV
vector 56 DatabaseNetwork.user[56] AccessInterval ETV
vector 57 DatabaseNetwork.user[57] AccessInterval ETV
vector 58 DatabaseNetwork.user[58] AccessInterval ETV
vector 59 DatabaseNetwork.user[59] AccessInterval ETV
vector 60 DatabaseNetwork.user[60] AccessInterval ETV
vector 61 DatabaseNetwork.user[61] AccessInterval ETV
vector 62 DatabaseNetwork.user[62] AccessInterval ETV
vector 63 DatabaseNetwork.user[63] AccessInterval ETV
vector 64 DatabaseNetwork.user[64] AccessInterval ETV
vector 65 DatabaseNetwork.user[65] AccessInterval ETV
vector 66 DatabaseNetwork.user[66] AccessInterval ETV
vector 67 DatabaseNetwork.user[67] AccessInterval ETV
vector 68 DatabaseNetwork.user[68] AccessInterval ETV
vector 69 DatabaseNetwork.user[69] AccessInterval ETV
vector 70 DatabaseNetwork.user[70] AccessInterval ETV
vector 71 DatabaseNetwork.user[71] AccessInterval ETV
vector 72 DatabaseNetwork.user[72] AccessInterval ETV
vector 73 DatabaseNetwork.user[73] AccessInterval ETV
vector 74 DatabaseNetwork.user[74] AccessInterval ETV
vector 75 DatabaseNetwork.user[75] AccessInterval ETV
vector 76 DatabaseNetwork.user[76] AccessInterval ETV
vector 77 DatabaseNetwork.user[77] AccessInterval ETV
vector 78 DatabaseNetwork.user[78] AccessInterval ETV
vector 79 DatabaseNetwork.user[79] AccessInterval ETV
vector 80 DatabaseNetwork.user[80] AccessInterval ETV
vector 81 DatabaseNetwork.user[81] AccessInterval ETV
vector 82 DatabaseNetwork.user[82] AccessInterval ETV
vector 83 DatabaseNetwork.user[83] AccessInterval ETV
vector 84 DatabaseNetwork.user[84] AccessInterval ETV
vector 85 DatabaseNetwork.user[85] AccessInterval ETV
vector 86 DatabaseNetwork.user[86] AccessInterval ETV
vector 87 DatabaseNetwork.user[87] AccessInterval ETV
vector 88 DatabaseNetwork.user[88] AccessInterval ETV
vector 89 DatabaseNetwork.user[89] AccessInterval ETV
vector 90 DatabaseNetwork.user[90] AccessInterval ETV
vector 91 DatabaseNetwork.user[91] AccessInterval ETV
vector 92 DatabaseNetwork.user[92] AccessInterval ETV
vector 93 DatabaseNetwork.user[93] AccessInterval ETV
vector 94 DatabaseNetwork.user[94] AccessInterval ETV
vector 95 DatabaseNetwork.user[95] AccessInterval ETV
vector 96 DatabaseNetwork.user[96] AccessInterval ETV
vector 97 DatabaseNetwork.user[97] AccessInterval ETV
vector 98 DatabaseNetwork.user[98] AccessInterval ETV
vector 99 DatabaseNetwork.user[99] AccessInterval ETV
vector 100 DatabaseNetwork.user[4] ReadAccesses ETV
vector 101 DatabaseNetwork.user[4] WaitTime ETV
vector 102 DatabaseNetwork.user[76] ReadAccesses ETV
vector 103 DatabaseNetwork.user[76] WaitTime ETV
vector 104 DatabaseNetwork.user[28] ReadAccesses ETV
vector 105 DatabaseNetwork.user[28] WaitTime ETV
vector 106 DatabaseNetwork.user[77] ReadAccesses ETV
vector 107 DatabaseNetwork.user[77] WaitTime ETV
vector 108 DatabaseNetwork.user[54] ReadAccesses ETV
vector 109 DatabaseNetwork.user[54] WaitTime ETV
vector 110 DatabaseNetwork.user[57] ReadAccesses ETV
vector 111 DatabaseNetwork.user[57] WaitTime ETV
vector 112 DatabaseNetwork.user[89] ReadAccesses ETV
vector 113 DatabaseNetwork.user[89] WaitTime ETV
vector 114 DatabaseNetwork.user[52] ReadAccesses ETV
vector 115 DatabaseNetwork.user[52] WaitTime ETV
vector 116 DatabaseNetwork.user[10] ReadAccesses ETV
vector 117 DatabaseNetwork.user[45] ReadAccesses ETV
vector 118 DatabaseNetwork.user[93] ReadAccesses ETV
vector 119 DatabaseNetwork.user[10] WaitTime ETV
vector 120 DatabaseNetwork.user[45] WaitTime ETV
vector 121 DatabaseNetwork.user[60] WriteAccesses ETV
vector 122 DatabaseNetwork.user[93] WaitTime ETV
vector 123 DatabaseNetwork.user[60] WaitTime ETV
vector 124 DatabaseNetwork.user[88] ReadAccesses ETV
vector 125 DatabaseNetwork.user[88] WaitTime ETV
vector 126 DatabaseNetwork.user[97] ReadAccesses ETV
vector 127 DatabaseNetwork.user[97] WaitTime ETV
vector 128 DatabaseNetwork.user[5] ReadAccesses ETV
vector 129 DatabaseNetwork.user[98] ReadAccesses ETV
vector 130 DatabaseNetwork.user[5] WaitTime ETV
vector 131 DatabaseNetwork.user[98] WaitTime ETV
vector 132 DatabaseNetwork.user[36] WriteAccesses ETV
vector 133 DatabaseNetwork.user[71] WriteAccesses ETV
vector 134 DatabaseNetwork.user[36] WaitTime ETV
vector 135 DatabaseNetwork.user[71] WaitTime ETV
vector 136 DatabaseNetwork.user[8] ReadAccesses ETV
vector 137 DatabaseNetwork.user[8] WaitTime ETV
vector 138 DatabaseNetwork.user[56] ReadAccesses ETV
vector 139 DatabaseNetwork.user[56] WaitTime ETV
vector 140 DatabaseNetwork.user[12] ReadAccesses ETV
vector 141 DatabaseNetwork.user[12] WaitTime ETV
vector 142 DatabaseNetwork.user[67] ReadAccesses ETV
vector 143 DatabaseNetwork.user[38] ReadAccesses ETV
vector 144 DatabaseNetwork.user[67] WaitTime ETV
vector 145 DatabaseNetwork.user[38] WaitTime ETV
vector 146 DatabaseNetwork.user[24] ReadAccesses ETV
vector 147 DatabaseNetwork.user[71] ReadAccesses ETV
vector 148 DatabaseNetwork.user[24] WaitTime ETV
vector 149 DatabaseNetwork.user[24] WriteAccesses ETV
vector 150 DatabaseNetwork.user[87] WriteAccesses ETV
vector 151 DatabaseNetwork.user[87] WaitTime ETV
vector 152 DatabaseNetwork.user[27] ReadAccesses ETV
vector 153 DatabaseNetwork.user[27] WaitTime ETV
vector 154 DatabaseNetwork.user[9] ReadAccesses ETV
vector 155 DatabaseNetwork.user[9] WaitTime ETV
vector 156 DatabaseNetwork.user[54] WriteAccesses ETV
vector 157 DatabaseNetwork.user[55] ReadAccesses ETV
vector 158 DatabaseNetwork.user[87] ReadAccesses ETV
vector 159 DatabaseNetwork.user[55] WaitTime ETV
vector 160 DatabaseNetwork.user[84] ReadAccesses ETV
vector 161 DatabaseNetwork.user[84] WaitTime ETV
vector 162 DatabaseNetwork.user[96] ReadAccesses ETV
vector 163 DatabaseNetwork.user[69] WriteAccesses ETV
vector 164 DatabaseNetwork.user[96] WaitTime ETV
vector 165 DatabaseNetwork.user[69] WaitTime ETV
vector 166 DatabaseNetwork.user[94] ReadAccesses ETV
vector 167 DatabaseNetwork.user[94] WaitTime ETV
vector 168 DatabaseNetwork.user[83] ReadAccesses ETV
vector 169 DatabaseNetwork.user[6] ReadAccesses ETV
vector 170 DatabaseNetwork.user[83] WaitTime ETV
vector 171 DatabaseNetwork.user[6] WaitTime ETV
vector 172 DatabaseNetwork.user[21] ReadAccesses ETV
vector 173 DatabaseNetwork.user[44] ReadAccesses ETV
vector 174 DatabaseNetwork.user[70] ReadAccesses ETV
vector 175 DatabaseNetwork.user[21] WaitTime ETV
vector 176 DatabaseNetwork.user[44] WaitTime ETV
vector 177 DatabaseNetwork.user[70] WaitTime ETV
vector 178 DatabaseNetwork.user[14] ReadAccesses ETV
vector 179 DatabaseNetwork.user[14] WaitTime ETV
vector 180 DatabaseNetwork.user[13] ReadAccesses ETV
vector 181 DatabaseNetwork.user[13] WaitTime ETV
vector 182 DatabaseNetwork.user[11] WriteAccesses ETV
vector 183 DatabaseNetwork.user[16] ReadAccesses ETV
vector 184 DatabaseNetwork.user[55] WriteAccesses ETV
vector 185 DatabaseNetwork.user[11] WaitTime ETV
vector 186 DatabaseNetwork.user[16] WaitTime ETV
vector 187 DatabaseNetwork.user[65] ReadAccesses ETV
vector 188 DatabaseNetwork.user[75] ReadAccesses ETV
vector 189 DatabaseNetwork.user[65] WaitTime ETV
vector 190 DatabaseNetwork.user[75] WaitTime ETV
vector 191 DatabaseNetwork.user[0] WriteAccesses ETV
vector 192 DatabaseNetwork.user[32] ReadAccesses ETV
vector 193 DatabaseNetwork.user[20] ReadAccesses ETV
vector 194 DatabaseNetwork.user[0] WaitTime ETV
vector 195 DatabaseNetwork.user[32] WaitTime ETV
vector 196 DatabaseNetwork.user[62] ReadAccesses ETV
vector 197 DatabaseNetwork.user[20] WaitTime ETV
vector 198 DatabaseNetwork.user[62] WaitTime ETV
vector 199 DatabaseNetwork.user[35] ReadAccesses ETV
vector 200 DatabaseNetwork.user[35] WaitTime ETV
vector 201 DatabaseNetwork.user[60] ReadAccesses ETV
vector 202 DatabaseNetwork.user[67] WriteAccesses ETV
vector 203 DatabaseNetwork.user[25] ReadAccesses ETV
vector 204 DatabaseNetwork.user[85] WriteAccesses ETV
vector 205 DatabaseNetwork.user[25] WaitTime ETV
vector 206 DatabaseNetwork.user[90] ReadAccesses ETV
vector 207 DatabaseNetwork.user[85] WaitTime ETV
vector 208 DatabaseNetwork.user[90] WaitTime ETV
vector 209 DatabaseNetwork.user[33] WriteAccesses ETV
vector 210 DatabaseNetwork.user[33] WaitTime ETV
vector 211 DatabaseNetwork.user[91] ReadAccesses ETV
vector 212 DatabaseNetwork.user[14] WriteAccesses ETV
vector 213 DatabaseNetwork.user[91] WaitTime ETV
vector 214 DatabaseNetwork.user[0] ReadAccesses ETV
vector 215 DatabaseNetwork.user[69] ReadAccesses ETV
vector 216 DatabaseNetwork.user[93] WriteAccesses ETV
vector 217 DatabaseNetwork.user[47] WriteAccesses ETV
vector 218 DatabaseNetwork.user[47] WaitTime ETV
vector 219 DatabaseNetwork.user[23] WriteAccesses ETV
vector 220 DatabaseNetwork.user[99] ReadAccesses ETV
vector 221 DatabaseNetwork.user[23] WaitTime ETV
vector 222 DatabaseNetwork.user[99] WaitTime ETV
vector 223 DatabaseNetwork.user[66] WriteAccesses ETV
vector 224 DatabaseNetwork.user[29] WriteAccesses ETV
vector 225 DatabaseNetwork.user[66] WaitTime ETV
vector 226 DatabaseNetwork.user[29] WaitTime ETV
vector 227 DatabaseNetwork.user[18] WriteAccesses ETV
vector 228 DatabaseNetwork.user[18] WaitTime ETV
vector 229 DatabaseNetwork.user[34] ReadAccesses ETV
vector 230 DatabaseNetwork.user[34] WaitTime ETV
vector 231 DatabaseNetwork.user[89] WriteAccesses ETV
vector 232 DatabaseNetwork.user[84] WriteAccesses ETV
vector 233 DatabaseNetwork.user[9] WriteAccesses ETV
vector 234 DatabaseNetwork.user[61] ReadAccesses ETV
vector 235 DatabaseNetwork.user[61] WaitTime ETV
vector 236 DatabaseNetwork.user[79] ReadAccesses ETV
vector 237 DatabaseNetwork.user[52] WriteAccesses ETV
vector 238 DatabaseNetwork.user[79] WaitTime ETV
vector 239 DatabaseNetwork.user[79] WriteAccesses ETV
vector 240 DatabaseNetwork.user[47] ReadAccesses ETV
vector 241 DatabaseNetwork.user[81] WriteAccesses ETV
vector 242 DatabaseNetwork.user[81] WaitTime ETV
vector 243 DatabaseNetwork.user[15] ReadAccesses ETV
vector 244 DatabaseNetwork.user[30] ReadAccesses ETV
vector 245 DatabaseNetwork.user[59] ReadAccesses ETV
vector 246 DatabaseNetwork.user[15] WaitTime ETV
vector 247 DatabaseNetwork.user[63] WriteAccesses ETV
vector 248 DatabaseNetwork.user[30] WaitTime ETV
vector 249 DatabaseNetwork.user[59] WaitTime ETV
vector 250 DatabaseNetwork.user[63] WaitTime ETV
vector 251 DatabaseNetwork.user[22] ReadAccesses ETV
vector 252 DatabaseNetwork.user[81] ReadAccesses ETV
vector 253 DatabaseNetwork.user[72] ReadAccesses ETV
vector 254 DatabaseNetwork.user[22] WaitTime ETV
vector 255 DatabaseNetwork.user[72] WaitTime ETV
vector 256 DatabaseNetwork.user[68] ReadAccesses ETV
vector 257 DatabaseNetwork.user[46] ReadAccesses ETV
vector 258 DatabaseNetwork.user[68] WaitTime ETV
vector 259 DatabaseNetwork.user[46] WaitTime ETV
vector 260 DatabaseNetwork.user[34] WriteAccesses ETV
vector 261 DatabaseNetwork.user[29] ReadAccesses ETV
vector 262 DatabaseNetwork.user[41] ReadAccesses ETV
vector 263 DatabaseNetwork.user[41] WaitTime ETV
vector 264 DatabaseNetwork.user[2] ReadAccesses ETV
vector 265 DatabaseNetwork.user[2] WaitTime ETV
vector 266 DatabaseNetwork.user[82] ReadAccesses ETV
vector 267 DatabaseNetwork.user[82] WaitTime ETV
vector 268 DatabaseNetwork.user[78] ReadAccesses ETV
vector 269 DatabaseNetwork.user[78] WaitTime ETV
vector 270 DatabaseNetwork.user[39] ReadAccesses ETV
vector 271 DatabaseNetwork.user[39] WaitTime ETV
vector 272 DatabaseNetwork.user[66] ReadAccesses ETV
vector 273 DatabaseNetwork.user[73] WriteAccesses ETV
vector 274 DatabaseNetwork.user[73] WaitTime ETV
vector 275 DatabaseNetwork.user[36] ReadAccesses ETV
vector 276 DatabaseNetwork.user[5] WriteAccesses ETV
vector 277 DatabaseNetwork.user[86] WriteAccesses ETV
vector 278 DatabaseNetwork.user[86] WaitTime ETV
vector 279 DatabaseNetwork.user[85] ReadAccesses ETV
vector 280 DatabaseNetwork.user[40] ReadAccesses ETV
vector 281 DatabaseNetwork.user[40] WaitTime ETV
vector 282 DatabaseNetwork.user[43] ReadAccesses ETV
vector 283 DatabaseNetwork.user[43] WaitTime ETV
vector 284 DatabaseNetwork.user[86] ReadAccesses ETV
vector 285 DatabaseNetwork.user[73] ReadAccesses ETV
vector 286 DatabaseNetwork.user[62] WriteAccesses ETV
vector 287 DatabaseNetwork.user[51] ReadAccesses ETV
vector 288 DatabaseNetwork.user[53] WriteAccesses ETV
vector 289 DatabaseNetwork.user[51] WaitTime ETV
vector 290 DatabaseNetwork.user[33] ReadAccesses ETV
vector 291 DatabaseNetwork.user[53] WaitTime ETV
vector 292 DatabaseNetwork.user[74] ReadAccesses ETV
vector 293 DatabaseNetwork.user[74] WaitTime ETV
vector 294 DatabaseNetwork.user[19] WriteAccesses ETV
vector 295 DatabaseNetwork.user[19] WaitTime ETV
vector 296 DatabaseNetwork.user[91] WriteAccesses ETV
vector 297 DatabaseNetwork.user[44] WriteAccesses ETV
vector 298 DatabaseNetwork.user[49] WriteAccesses ETV
vector 299 DatabaseNetwork.user[49] WaitTime ETV
vector 300 DatabaseNetwork.user[48] ReadAccesses ETV
vector 301 DatabaseNetwork.user[48] WaitTime ETV
vector 302 DatabaseNetwork.user[26] ReadAccesses ETV
vector 303 DatabaseNetwork.user[58] WriteAccesses ETV
vector 304 DatabaseNetwork.user[26] WaitTime ETV
vector 305 DatabaseNetwork.user[58] WaitTime ETV
vector 306 DatabaseNetwork.user[8] WriteAccesses ETV
vector 307 DatabaseNetwork.user[58] ReadAccesses ETV
vector 308 DatabaseNetwork.user[50] ReadAccesses ETV
vector 309 DatabaseNetwork.user[50] WaitTime ETV
vector 310 DatabaseNetwork.user[95] ReadAccesses ETV
vector 311 DatabaseNetwork.user[95] WaitTime ETV
vector 312 DatabaseNetwork.user[22] WriteAccesses ETV
vector 313 DatabaseNetwork.user[92] ReadAccesses ETV
vector 314 DatabaseNetwork.user[92] WaitTime ETV
vector 315 DatabaseNetwork.user[31] ReadAccesses ETV
vector 316 DatabaseNetwork.user[31] WaitTime ETV
vector 317 DatabaseNetwork.user[49] ReadAccesses ETV
vector 318 DatabaseNetwork.user[12] WriteAccesses ETV
vector 319 DatabaseNetwork.user[3] WriteAccesses ETV
vector 320 DatabaseNetwork.user[3] WaitTime ETV
vector 321 DatabaseNetwork.user[17] ReadAccesses ETV
vector 322 DatabaseNetwork.user[17] WaitTime ETV
vector 323 DatabaseNetwork.user[37] ReadAccesses ETV
vector 324 DatabaseNetwork.user[37] WaitTime ETV
vector 325 DatabaseNetwork.user[11] ReadAccesses ETV
vector 326 DatabaseNetwork.user[68] WriteAccesses ETV
vector 327 DatabaseNetwork.user[51] WriteAccesses ETV
vector 328 DatabaseNetwork.user[63] ReadAccesses ETV
vector 329 DatabaseNetwork.user[35] WriteAccesses ETV
vector 330 DatabaseNetwork.user[64] ReadAccesses ETV
vector 331 DatabaseNetwork.user[64] WaitTime ETV
vector 332 DatabaseNetwork.user[98] WriteAccesses ETV
vector 333 DatabaseNetwork.user[25] WriteAccesses ETV
vector 334 DatabaseNetwork.user[97] WriteAccesses ETV
vector 335 DatabaseNetwork.user[59] WriteAccesses ETV
vector 336 DatabaseNetwork.user[57] WriteAccesses ETV
vector 337 DatabaseNetwork.user[15] WriteAccesses ETV
vector 338 DatabaseNetwork.user[42] ReadAccesses ETV
vector 339 DatabaseNetwork.user[42] WaitTime ETV
vector 340 DatabaseNetwork.user[20] WriteAccesses ETV
vector 341 DatabaseNetwork.user[46] WriteAccesses ETV
vector 342 DatabaseNetwork.user[41] WriteAccesses ETV
vector 343 DatabaseNetwork.user[72] WriteAccesses ETV
vector 344 DatabaseNetwork.user[56] WriteAccesses ETV
vector 345 DatabaseNetwork.user[53] ReadAccesses ETV
vector 346 DatabaseNetwork.user[48] WriteAccesses ETV
vector 347 DatabaseNetwork.user[23] ReadAccesses ETV
vector 348 DatabaseNetwork.user[19] ReadAccesses ETV
vector 349 DatabaseNetwork.user[92] WriteAccesses ETV
vector 350 DatabaseNetwork.user[90] WriteAccesses ETV
vector 351 DatabaseNetwork.user[18] ReadAccesses ETV
vector 352 DatabaseNetwork.user[77] WriteAccesses ETV
vector 353 DatabaseNetwork.user[6] WriteAccesses ETV
vector 354 DatabaseNetwork.user[94] WriteAccesses ETV
vector 355 DatabaseNetwork.user[80] WriteAccesses ETV
vector 356 DatabaseNetwork.user[80] WaitTime ETV
vector 357 DatabaseNetwork.user[80] ReadAccesses ETV
vector 358 DatabaseNetwork.user[95] WriteAccesses ETV
vector 359 DatabaseNetwork.user[40] WriteAccesses ETV
vector 360 DatabaseNetwork.user[43] WriteAccesses ETV
vector 361 DatabaseNetwork.user[96] WriteAccesses ETV
vector 362 DatabaseNetwork.user[3] ReadAccesses ETV
vector 363 DatabaseNetwork.user[2] WriteAccesses ETV
vector 364 DatabaseNetwork.user[82] WriteAccesses ETV
vector 365 DatabaseNetwork.user[16] WriteAccesses ETV
vector 366 DatabaseNetwork.user[45] WriteAccesses ETV
vector 367 DatabaseNetwork.user[1] WriteAccesses ETV
vector 368 DatabaseNetwork.user[1] WaitTime ETV
vector 369 DatabaseNetwork.user[83] WriteAccesses ETV
vector 370 DatabaseNetwork.user[10] WriteAccesses ETV
vector 371 DatabaseNetwork.user[74] WriteAccesses ETV
vector 372 DatabaseNetwork.user[1] ReadAccesses ETV
vector 373 DatabaseNetwork.user[42] WriteAccesses ETV
vector 374 DatabaseNetwork.user[61] WriteAccesses ETV
vector 375 DatabaseNetwork.user[78] WriteAccesses ETV
vector 376 DatabaseNetwork.user[50] WriteAccesses ETV
vector 377 DatabaseNetwork.user[32] WriteAccesses ETV
vector 378 DatabaseNetwork.user[39] WriteAccesses ETV
vector 379 DatabaseNetwork.user[4] WriteAccesses ETV
vector 380 DatabaseNetwork.user[76] WriteAccesses ETV
vector 381 DatabaseNetwork.user[7] ReadAccesses ETV
vector 382 DatabaseNetwork.user[7] WaitTime ETV
vector 383 DatabaseNetwork.user[88] WriteAccesses ETV
vector 384 DatabaseNetwork.user[99] WriteAccesses ETV
vector 385 DatabaseNetwork.user[37] WriteAccesses ETV
vector 386 DatabaseNetwork.user[75] WriteAccesses ETV
vector 387 DatabaseNetwork.user[65] WriteAccesses ETV
vector 388 DatabaseNetwork.user[17] WriteAccesses ETV
vector 389 DatabaseNetwork.user[28] WriteAccesses ETV
vector 390 DatabaseNetwork.user[26] WriteAccesses ETV
vector 391 DatabaseNetwork.user[70] WriteAccesses ETV
vector 392 DatabaseNetwork.user[27] WriteAccesses ETV
vector 393 DatabaseNetwork.user[64] WriteAccesses ETV
vector 394 DatabaseNetwork.user[31] WriteAccesses ETV
vector 395 DatabaseNetwork.user[7] WriteAccesses ETV
vector 396 DatabaseNetwork.user[21] WriteAccesses ETV
vector 397 DatabaseNetwork.user[30] WriteAccesses ETV
vector 398 DatabaseNetwork.user[13] WriteAccesses ETV
vector 399 DatabaseNetwork.user[38] WriteAccesses ETV
0	22141 20742 0 200955 0 9998.079504742159 493 0.0013859072311316 128.92090257572 10022.296643764 433782.28399621
1	42883 21237 0 200729 0 9986.979491615014 503 0.016330938985403 117.45449721963 10011.932557345 413603.09906571
2	64120 21576 0 200663 0 9984.464022185329 512 0.049527298327509 135.55743094614 10007.202780269 408574.26369225
3	85696 21707 0 200575 0 9980.292509154384 515 0.0087895789555565 127.90891756393 10001.946429197 382360.65145393
4	107403 21407 0 200825 0 9990.785811356464 509 0.0022877524501596 178.74017601846 10000.226091551 404076.22412136
5	128810 22754 0 200787 0 9989.231165732579 541 0.079715328112322 161.35945679319 10031.202747501 371674.14592565
6	151564 19257 0 200737 0 9987.48615906755 458 0.056740273737236 145.17546409559 10010.265759964 432802.59156749
7	170821 19690 0 200877 0 9993.545578118209 467 0.083787331647331 138.98228574673 10000.861752173 411964.42254274
8	190511 21326 0 200895 0 9994.690846905374 507 0.0073624913675626 140.71992491017 10035.052139634 401191.62105705
9	211837 22859 0 200755 0 9987.764385616025 543 0.023655411927899 98.913776987359 10005.676266923 358191.08227185
10	234696 20425 0 200373 0 9970.851588408359 473 0.0089321996753779 189.28351149772 10001.106566995 437495.38516353
11	255121 21567 0 200919 0 9996.282293398214 500 0.0094601763250899 122.67930911988 10000.494329445 401941.38383075
12	276688 21499 0 200953 0 9998.030194083544 498 0.016984386695306 156.19884119817 10002.747405339 433259.20356386
13	298187 21897 0 200273 0 9966.580495364021 508 0.034723311443618 112.87872848426 10019.103543097 384033.52435553
14	320084 21272 0 199875 0 9944.018782833501 493 0.0078052609715778 112.83927140574 10018.840984263 399585.48609076
15	341356 21937 0 200491 0 9975.447589621189 508 0.023699198642902 172.44455887535 10003.077101395 387503.5388495
16	363293 20087 0 200699 0 9985.669294113343 467 0.015109630174242 139.89575656073 10000.094590642 402841.38135659
17	383380 20130 0 200617 0 9981.977422412484 467 0.041786142063588 128.99670643872 10013.415832942 422592.64612611
18	403510 21538 0 199911 0 9946.798288536725 500 0.051234964984868 143.53532064958 10016.534099481 401315.32114779
19	425048 22900 0 200795 0 9989.457916829792 530 0.00042241978448592 139.18742770807 10020.179237262 380963.70156229
20	447948 21523 0 200675 0 9984.803981314085 499 0.020959743803993 154.98258214522 10017.661878119 416250.70280572
21	469471 21364 0 200939 0 9997.080089234061 496 0.098764348877482 168.15603931475 10017.365815483 419099.04673437
22	490835 21683 0 200745 0 9987.595281276751 503 0.13105801279931 150.23389889957 10044.870710977 418349.59055681
23	512518 20570 0 200829 0 9991.021105567065 477 0.029339217909667 122.17557611469 10004.772136122 391563.30812226
24	533088 22302 0 200421 0 9971.949959310895 517 0.05124906870125 122.54838700652 10002.496590664 382344.75325985
25	555390 21677 0 200589 0 9980.951120759885 503 0.0033629066873698 139.40629221781 10045.788272181 414474.50866704
26	577067 21608 0 200969 0 9998.531209390191 501 0.017007018431362 106.88098071852 10018.979214524 367887.71042078
27	598675 20932 0 200501 0 9976.033482530418 485 0.026729041343869 155.05766198805 10074.129021973 422147.75973248
28	619607 21208 0 200409 0 9971.372019452359 492 0.01167874835762 149.59670867606 10002.967285441 396806.77828917
29	640815 21831 0 200815 0 9990.266720940165 507 0.020275872152572 112.53220358409 10029.194927081 361684.4059429
30	662646 21202 0 200845 0 9992.044045832403 491 0.0752426433687 108.67788227475 10035.462840418 409711.4765261
31	683848 21665 0 200309 0 9968.494419822021 502 0.019706773062337 119.08910779955 10001.923296363 426598.99586358
32	705513 21389 0 200849 0 9992.30989719837 496 0.014592245690382 217.34813338442 10016.300559396 414342.1940972
33	726902 23295 0 199089 0 9903.283169918878 539 0.076657165728409 144.06945097505 10029.56891088 385148.71708595
34	750197 20907 0 200325 0 9969.272367489749 484 0.050597642379897 136.05484458711 10007.416357588 414344.57980832
35	771104 23974 0 200805 0 9989.621937425312 556 0.10114074912289 135.74738431492 10005.507953175 377289.4393531
36	795078 22920 0 200633 0 9983.144275978701 531 0.1084705181507 150.54238283313 10015.932541815 402917.09279774
37	817998 21448 0 200753 0 9987.752166712839 496 0.044399213307625 183.7954060235 10015.094499817 409322.01090862
38	839446 21579 0 199979 0 9949.91237626245 501 0.063813762757785 130.17817146731 10001.705949144 384035.82894626
39	861025 23372 0 200901 0 9995.313849005312 541 0.0090317282408622 136.58355468462 10006.17419372 385565.13023591
40	884397 22512 0 200715 0 9986.378249969368 522 0.016147766803521 131.09545797795 10093.024012453 389898.79426205
41	906909 22714 0 200677 0 9984.842614677307 526 0.078018541942716 112.11899137735 10046.426485723 364678.56552757
42	929623 22980 0 200521 0 9977.39562741221 532 0.065019058645468 111.95291054456 10012.731110819 389343.28941372
43	952603 20223 0 200689 0 9985.408246608995 469 0.016833995358448 129.65527554271 10012.628486566 414919.09856688
44	972826 23012 0 200851 0 9992.391304021354 534 0.18357794646061 123.38329812512 10005.821235126 382437.42599689
45	995838 22406 0 200569 0 9980.130493040845 520 0.013648144956671 108.80342527436 10083.238636399 389171.96935021
46	1018244 22435 0 200525 0 9977.650891532004 520 0.013158788942488 112.39046204704 10007.398113151 395263.66030533
47	1040679 19454 0 200269 0 9966.127684658581 451 0.010531877144437 122.59426513987 10011.280930115 438545.71329602
48	1060133 21441 0 199673 0 9934.362343315833 498 0.041361853829629 155.46917430244 10000.571732032 418457.62499946
49	1081574 19940 0 200723 0 9986.773854882543 463 0.035021826774124 162.93265052986 10002.476282625 425255.98194779
50	1101514 21627 0 200739 0 9987.509268021611 502 0.035153364508752 129.94208736473 10021.620951674 422387.97682469
51	1123141 20990 0 200403 0 9971.268938827281 486 0.023446843581356 174.67491564188 10001.680427297 460897.56204712
52	1144131 21503 0 200833 0 9991.189272309471 499 0.024004020613819 154.9067608353 10004.757092938 411020.60473188
53	1165634 21628 0 200613 0 9981.768581387209 501 0.022843053347805 107.01879872558 10028.671669391 380310.74628028
54	1187262 21054 0 200861 0 9992.803359953 488 0.11219322435517 131.55749140032 10016.834975287 410772.8889461
55	1208316 22947 0 200697 0 9985.655851466513 533 0.027497939850019 132.27927745896 10014.37906765 373080.42012606
56	1231263 22002 0 198985 0 9897.672578150798 510 0.073543039742854 136.98724258219 10017.702685892 417876.00582897
57	1253265 22615 0 200607 0 9981.661015873214 524 0.04835975590989 114.76233753134 10076.294876999 367120.8550718
58	1275880 22079 0 200913 0 9996.133577387746 512 0.06346628600827 98.364530634041 10027.866134278 380176.55510258
59	1297959 21328 0 200959 0 9998.159282501542 494 0.030609544439794 135.05602585379 10007.140685416 398215.68854088
60	1319287 22115 0 200931 0 9996.828804202337 512 0.0074573910385494 130.94156899739 10003.410564633 381948.74565307
61	1341402 20964 0 200945 0 9997.285141210399 486 0.077640582171274 113.44341497744 10004.742048456 401509.82738384
62	1362366 20326 0 200033 0 9953.646525968538 471 0.023203964923481 138.81364960779 10010.65234259 420805.62632584
63	1382692 22531 0 200253 0 9964.629873742846 522 0.01159749441732 114.90831457794 10021.527900266 381331.08195301
64	1405223 21576 0 200855 0 9992.489130602048 500 0.045380746139788 108.65323887606 10001.822081839 395787.17181236
65	1426799 21194 0 200553 0 9979.241274206032 491 0.028119068373926 130.7719600457 10002.212492901 412877.34463711
66	1447993 22225 0 200769 0 9988.2264404068 515 0.048469456202684 137.86081946589 10052.692542161 389323.87773798