file 2919641 1767628883                                         
version 3
run Lognormal-22-20260105-17:01:23-25149
attr configname Lognormal
attr datetime 20260105-17:01:23
attr datetimef 20260105-170123
attr experiment Lognormal
attr inifile omnetpp.ini
attr iterationvars "$N=50, $p=0.9"
attr iterationvarsd N=50/p=0.9
attr iterationvarsf N=50,p=0.9-
attr measurement "$N=50, $p=0.9"
attr network progetto.DatabaseNetwork
attr processid 25149
attr repetition 2
attr replication #2
attr resultdir results
attr runnumber 22
attr seedset 2
itervar N 50
itervar p 0.9
config description "Lognormal distribution (hotspots) - varia N e p"
config *.user[*].tableDistribution "\"lognormal\""
config *.user[*].lognormalM 1.5
config *.user[*].lognormalS 1.0
config *.numUsers 50
config *.user[*].readProbability 0.9
config network progetto.DatabaseNetwork
config sim-time-limit 10000s
config cpu-time-limit 3600s
config repeat 5
config seed-set 2
config output-vector-file "results/Lognormal-$N=50, $p=0.9-2.vec"
config output-scalar-file "results/Lognormal-$N=50, $p=0.9-2.sca"
config result-dir results
config **.vector-recording true
config **.scalar-recording true
config *.numTables 20
config *.user[*].lambda 0.05
config *.user[*].serviceTime 0.1s

vector 0 DatabaseNetwork.user[0] AccessInterval ETV
vector 1 DatabaseNetwork.user[1] AccessInterval ETV
vector 2 DatabaseNetwork.user[2] AccessInterval ETV
vector 3 DatabaseNetwork.user[3] AccessInterval ETV
vector 4 DatabaseNetwork.user[4] AccessInterval ETV
vector 5 DatabaseNetwork.user[5] AccessInterval ETV
vector 6 DatabaseNetwork.user[6] AccessInterval ETV
vector 7 DatabaseNetwork.user[7] AccessInterval ETV
vector 8 DatabaseNetwork.user[8] AccessInterval ETV
vector 9 DatabaseNetwork.user[9] AccessInterval ETV
vector 10 DatabaseNetwork.user[10] AccessInterval ETV
vector 11 DatabaseNetwork.user[11] AccessInterval ETV
vector 12 DatabaseNetwork.user[12] AccessInterval ETV
vector 13 DatabaseNetwork.user[13] AccessInterval ETV
vector 14 DatabaseNetwork.user[14] AccessInterval ETV
vector 15 DatabaseNetwork.user[15] AccessInterval ETV
vector 16 DatabaseNetwork.user[16] AccessInterval ETV
vector 17 DatabaseNetwork.user[17] AccessInterval ETV
vector 18 DatabaseNetwork.user[18] AccessInterval ETV
vector 19 DatabaseNetwork.user[19] AccessInterval ETV
vector 20 DatabaseNetwork.user[20] AccessInterval ETV
vector 21 DatabaseNetwork.user[21] AccessInterval ETV
vector 22 DatabaseNetwork.user[22] AccessInterval ETV
vector 23 DatabaseNetwork.user[23] AccessInterval ETV
vector 24 DatabaseNetwork.user[24] AccessInterval ETV
vector 25 DatabaseNetwork.user[25] AccessInterval ETV
vector 26 DatabaseNetwork.user[26] AccessInterval ETV
vector 27 DatabaseNetwork.user[27] AccessInterval ETV
vector 28 DatabaseNetwork.user[28] AccessInterval ETV
vector 29 DatabaseNetwork.user[29] AccessInterval ETV
vector 30 DatabaseNetwork.user[30] AccessInterval ETV
vector 31 DatabaseNetwork.user[31] AccessInterval ETV
vector 32 DatabaseNetwork.user[32] AccessInterval ETV
vector 33 DatabaseNetwork.user[33] AccessInterval ETV
vector 34 DatabaseNetwork.user[34] AccessInterval ETV
vector 35 DatabaseNetwork.user[35] AccessInterval ETV
vector 36 DatabaseNetwork.user[36] AccessInterval ETV
vector 37 DatabaseNetwork.user[37] AccessInterval ETV
vector 38 DatabaseNetwork.user[38] AccessInterval ETV
vector 39 DatabaseNetwork.user[39] AccessInterval ETV
vector 40 DatabaseNetwork.user[40] AccessInterval ETV
vector 41 DatabaseNetwork.user[41] AccessInterval ETV
vector 42 DatabaseNetwork.user[42] AccessInterval ETV
vector 43 DatabaseNetwork.user[43] AccessInterval ETV
vector 44 DatabaseNetwork.user[44] AccessInterval ETV
vector 45 DatabaseNetwork.user[45] AccessInterval ETV
vector 46 DatabaseNetwork.user[46] AccessInterval ETV
vector 47 DatabaseNetwork.user[47] AccessInterval ETV
vector 48 DatabaseNetwork.user[48] AccessInterval ETV
vector 49 DatabaseNetwork.user[49] AccessInterval ETV
vector 50 DatabaseNetwork.user[2] ReadAccesses ETV
vector 51 DatabaseNetwork.user[2] WaitTime ETV
vector 52 DatabaseNetwork.user[42] ReadAccesses ETV
vector 53 DatabaseNetwork.user[42] WaitTime ETV
vector 54 DatabaseNetwork.user[38] ReadAccesses ETV
vector 55 DatabaseNetwork.user[38] WaitTime ETV
vector 56 DatabaseNetwork.user[46] ReadAccesses ETV
vector 57 DatabaseNetwork.user[46] WaitTime ETV
vector 58 DatabaseNetwork.user[45] ReadAccesses ETV
vector 59 DatabaseNetwork.user[15] ReadAccesses ETV
vector 60 DatabaseNetwork.user[45] WaitTime ETV
vector 61 DatabaseNetwork.user[15] WaitTime ETV
vector 62 DatabaseNetwork.user[48] ReadAccesses ETV
vector 63 DatabaseNetwork.user[48] WaitTime ETV
vector 64 DatabaseNetwork.user[24] WriteAccesses ETV
vector 65 DatabaseNetwork.user[24] WaitTime ETV
vector 66 DatabaseNetwork.user[11] ReadAccesses ETV
vector 67 DatabaseNetwork.user[11] WaitTime ETV
vector 68 DatabaseNetwork.user[37] ReadAccesses ETV
vector 69 DatabaseNetwork.user[37] WaitTime ETV
vector 70 DatabaseNetwork.user[47] ReadAccesses ETV
vector 71 DatabaseNetwork.user[28] ReadAccesses ETV
vector 72 DatabaseNetwork.user[1] ReadAccesses ETV
vector 73 DatabaseNetwork.user[47] WaitTime ETV
vector 74 DatabaseNetwork.user[28] WaitTime ETV
vector 75 DatabaseNetwork.user[1] WaitTime ETV
vector 76 DatabaseNetwork.user[12] ReadAccesses ETV
vector 77 DatabaseNetwork.user[12] WaitTime ETV
vector 78 DatabaseNetwork.user[31] WriteAccesses ETV
vector 79 DatabaseNetwork.user[31] WaitTime ETV
vector 80 DatabaseNetwork.user[18] ReadAccesses ETV
vector 81 DatabaseNetwork.user[18] WaitTime ETV
vector 82 DatabaseNetwork.user[43] ReadAccesses ETV
vector 83 DatabaseNetwork.user[43] WaitTime ETV
vector 84 DatabaseNetwork.user[41] ReadAccesses ETV
vector 85 DatabaseNetwork.user[16] ReadAccesses ETV
vector 86 DatabaseNetwork.user[41] WaitTime ETV
vector 87 DatabaseNetwork.user[16] WaitTime ETV
vector 88 DatabaseNetwork.user[9] WriteAccesses ETV
vector 89 DatabaseNetwork.user[9] WaitTime ETV
vector 90 DatabaseNetwork.user[10] ReadAccesses ETV
vector 91 DatabaseNetwork.user[10] WaitTime ETV
vector 92 DatabaseNetwork.user[35] ReadAccesses ETV
vector 93 DatabaseNetwork.user[35] WaitTime ETV
vector 94 DatabaseNetwork.user[8] ReadAccesses ETV
vector 95 DatabaseNetwork.user[8] WaitTime ETV
vector 96 DatabaseNetwork.user[44] ReadAccesses ETV
vector 97 DatabaseNetwork.user[44] WaitTime ETV
vector 98 DatabaseNetwork.user[6] ReadAccesses ETV
vector 99 DatabaseNetwork.user[0] WriteAccesses ETV
vector 100 DatabaseNetwork.user[6] WaitTime ETV
vector 101 DatabaseNetwork.user[0] WaitTime ETV
vector 102 DatabaseNetwork.user[7] ReadAccesses ETV
vector 103 DatabaseNetwork.user[17] ReadAccesses ETV
vector 104 DatabaseNetwork.user[7] WaitTime ETV
vector 105 DatabaseNetwork.user[17] WaitTime ETV
vector 106 DatabaseNetwork.user[34] ReadAccesses ETV
vector 107 DatabaseNetwork.user[49] ReadAccesses ETV
vector 108 DatabaseNetwork.user[34] WaitTime ETV
vector 109 DatabaseNetwork.user[49] WaitTime ETV
vector 110 DatabaseNetwork.user[25] ReadAccesses ETV
vector 111 DatabaseNetwork.user[25] WaitTime ETV
vector 112 DatabaseNetwork.user[40] ReadAccesses ETV
vector 113 DatabaseNetwork.user[40] WaitTime ETV
vector 114 DatabaseNetwork.user[26] ReadAccesses ETV
vector 115 DatabaseNetwork.user[26] WaitTime ETV
vector 116 DatabaseNetwork.user[22] ReadAccesses ETV
vector 117 DatabaseNetwork.user[22] WaitTime ETV
vector 118 DatabaseNetwork.user[33] ReadAccesses ETV
vector 119 DatabaseNetwork.user[33] WaitTime ETV
vector 120 DatabaseNetwork.user[4] ReadAccesses ETV
vector 121 DatabaseNetwork.user[4] WaitTime ETV
vector 122 DatabaseNetwork.user[24] ReadAccesses ETV
vector 123 DatabaseNetwork.user[27] ReadAccesses ETV
vector 124 DatabaseNetwork.user[27] WaitTime ETV
vector 125 DatabaseNetwork.user[14] ReadAccesses ETV
vector 126 DatabaseNetwork.user[20] ReadAccesses ETV
vector 127 DatabaseNetwork.user[14] WaitTime ETV
vector 128 DatabaseNetwork.user[20] WaitTime ETV
vector 129 DatabaseNetwork.user[0] ReadAccesses ETV
vector 130 DatabaseNetwork.user[19] ReadAccesses ETV
vector 131 DatabaseNetwork.user[19] WaitTime ETV
vector 132 DatabaseNetwork.user[23] ReadAccesses ETV
vector 133 DatabaseNetwork.user[23] WaitTime ETV
vector 134 DatabaseNetwork.user[13] ReadAccesses ETV
vector 135 DatabaseNetwork.user[13] WaitTime ETV
vector 136 DatabaseNetwork.user[29] ReadAccesses ETV
vector 137 DatabaseNetwork.user[29] WaitTime ETV
vector 138 DatabaseNetwork.user[30] ReadAccesses ETV
vector 139 DatabaseNetwork.user[30] WaitTime ETV
vector 140 DatabaseNetwork.user[34] WriteAccesses ETV
vector 141 DatabaseNetwork.user[9] ReadAccesses ETV
vector 142 DatabaseNetwork.user[17] WriteAccesses ETV
vector 143 DatabaseNetwork.user[48] WriteAccesses ETV
vector 144 DatabaseNetwork.user[21] ReadAccesses ETV
vector 145 DatabaseNetwork.user[21] WaitTime ETV
vector 146 DatabaseNetwork.user[25] WriteAccesses ETV
vector 147 DatabaseNetwork.user[36] ReadAccesses ETV
vector 148 DatabaseNetwork.user[36] WaitTime ETV
vector 149 DatabaseNetwork.user[32] ReadAccesses ETV
vector 150 DatabaseNetwork.user[32] WaitTime ETV
vector 151 DatabaseNetwork.user[28] WriteAccesses ETV
vector 152 DatabaseNetwork.user[10] WriteAccesses ETV
vector 153 DatabaseNetwork.user[3] ReadAccesses ETV
vector 154 DatabaseNetwork.user[3] WaitTime ETV
vector 155 DatabaseNetwork.user[19] WriteAccesses ETV
vector 156 DatabaseNetwork.user[20] WriteAccesses ETV
vector 157 DatabaseNetwork.user[41] WriteAccesses ETV
vector 158 DatabaseNetwork.user[30] WriteAccesses ETV
vector 159 DatabaseNetwork.user[5] ReadAccesses ETV
vector 160 DatabaseNetwork.user[5] WaitTime ETV
vector 161 DatabaseNetwork.user[2] WriteAccesses ETV
vector 162 DatabaseNetwork.user[31] ReadAccesses ETV
vector 163 DatabaseNetwork.user[33] WriteAccesses ETV
vector 164 DatabaseNetwork.user[39] ReadAccesses ETV
vector 165 DatabaseNetwork.user[39] WaitTime ETV
vector 166 DatabaseNetwork.user[37] WriteAccesses ETV
vector 167 DatabaseNetwork.user[14] WriteAccesses ETV
vector 168 DatabaseNetwork.user[3] WriteAccesses ETV
vector 169 DatabaseNetwork.user[15] WriteAccesses ETV
vector 170 DatabaseNetwork.user[26] WriteAccesses ETV
vector 171 DatabaseNetwork.user[22] WriteAccesses ETV
vector 172 DatabaseNetwork.user[44] WriteAccesses ETV
vector 173 DatabaseNetwork.user[16] WriteAccesses ETV
vector 174 DatabaseNetwork.user[1] WriteAccesses ETV
vector 175 DatabaseNetwork.user[5] WriteAccesses ETV
vector 176 DatabaseNetwork.user[45] WriteAccesses ETV
vector 177 DatabaseNetwork.user[13] WriteAccesses ETV
vector 178 DatabaseNetwork.user[8] WriteAccesses ETV
vector 179 DatabaseNetwork.user[40] WriteAccesses ETV
vector 180 DatabaseNetwork.user[47] WriteAccesses ETV
vector 181 DatabaseNetwork.user[42] WriteAccesses ETV
vector 182 DatabaseNetwork.user[39] WriteAccesses ETV
vector 183 DatabaseNetwork.user[18] WriteAccesses ETV
vector 184 DatabaseNetwork.user[32] WriteAccesses ETV
vector 185 DatabaseNetwork.user[43] WriteAccesses ETV
vector 186 DatabaseNetwork.user[46] WriteAccesses ETV
vector 187 DatabaseNetwork.user[4] WriteAccesses ETV
vector 188 DatabaseNetwork.user[23] WriteAccesses ETV
vector 189 DatabaseNetwork.user[6] WriteAccesses ETV
vector 190 DatabaseNetwork.user[11] WriteAccesses ETV
vector 191 DatabaseNetwork.user[21] WriteAccesses ETV
vector 192 DatabaseNetwork.user[27] WriteAccesses ETV
vector 193 DatabaseNetwork.user[7] WriteAccesses ETV
vector 194 DatabaseNetwork.user[29] WriteAccesses ETV
vector 195 DatabaseNetwork.user[49] WriteAccesses ETV
vector 196 DatabaseNetwork.user[35] WriteAccesses ETV
vector 197 DatabaseNetwork.user[36] WriteAccesses ETV
vector 198 DatabaseNetwork.user[38] WriteAccesses ETV
vector 199 DatabaseNetwork.user[12] WriteAccesses ETV
0	11583 20787 0 99917 0 9985.036654437139 501 0.055328732896875 131.35346484747 10000.037594165 416922.81646103
1	32370 21246 0 99973 0 9991.863566646104 510 0.0093349850130101 105.73792872625 10002.946031039 378541.88858546
2	53616 20814 0 99969 0 9990.822778174567 501 0.006671636079354 122.43301383314 10000.805167745 402105.36602482
3	74430 22506 0 99979 0 9992.527773103554 541 0.024076723172288 95.789422137469 10029.520994442 356208.7264057
4	96936 20841 0 99851 0 9978.655653803697 501 0.0081008638654811 124.05084326256 10090.195201732 384808.9816491
5	117777 18453 0 99647 0 9958.019060753534 444 0.12104254734967 184.64871073723 10002.475158573 467696.18023661
6	136230 22118 0 99541 0 9946.646254905848 532 0.052575016523552 148.48838426469 10026.20537745 362276.40606197
7	158348 21098 0 99817 0 9976.335272497677 508 0.017334165460247 125.11895387978 10015.381643687 377268.41509959
8	179446 21044 0 99953 0 9988.400311217515 506 0.028776105048933 146.82334337571 10003.399905324 384248.87083549
9	200490 20832 0 99845 0 9978.502135748632 501 0.070646214778403 131.82110323449 10033.888456107 394231.57386405
10	221322 20651 0 100021 0 9998.700818027411 485 0.0011807376732707 143.2684264535 10000.180201406 400283.0250502
11	241973 22416 0 100011 0 9996.248359614293 527 0.039588033028555 103.41705510005 10005.92419518 378940.5194946
12	264389 20592 0 99761 0 9971.165101055764 484 0.03159204245686 180.6853722207 10049.594896703 451635.33558989
13	284981 19484 0 100033 0 9999.859666740273 458 0.018003129142311 121.32245550146 10030.218927294 441841.68809235
14	304465 22946 0 99733 0 9968.204102723239 539 0.090056077923265 111.36785385898 10020.01141949 369495.58976677
15	327411 22422 0 99509 0 9942.951016555797 526 0.0024053410641415 118.39318054545 10004.075669714 355711.67485233
16	349833 22133 0 99905 0 9984.303542605999 519 0.024808010732053 136.10814655659 10017.883725901 382139.9664173
17	371966 22561 0 99925 0 9985.706073942231 531 0.0024718362899742 100.60732406091 10031.218624198 347044.68343013
18	394527 20138 0 99877 0 9981.332755184212 474 0.014479967685213 123.23258523283 10014.32167308 389997.24882745
19	414665 19804 0 99909 0 9984.479993601085 466 0.019720863885406 135.87269473336 10007.248997399 429205.84874149
20	434469 20609 0 99861 0 9979.308258007333 484 0.084756971381987 124.13377350533 10006.551155196 403341.79481949
21	455078 22385 0 100003 0 9995.529940185233 526 0.013210087399531 120.8070043476 10021.786356884 367643.61354534
22	477463 21895 0 99835 0 9977.011483812763 515 0.016065870217381 99.921665086328 10011.093563285 355461.66273291
23	499358 21325 0 99949 0 9987.592366997662 501 0.010646453215402 150.69032973259 10001.774092081 394678.45457317
24	520683 21334 0 99425 0 9931.93430331136 500 0.062957440108611 111.5976432057 10029.01011942 393303.45348033
25	542017 20767 0 99749 0 9969.338155529664 488 0.014248968879297 134.84428963037 10008.010360855 418640.33743576
26	562784 21838 0 99721 0 9964.54080303598 514 0.075433364218743 141.98353102258 10048.110152496 402392.41434784
27	584622 19000 0 100029 0 9999.47196144913 447 0.0094158989867141 114.16182013067 10008.847094362 416797.16864162
28	603622 22082 0 100009 0 9996.218954580985 519 0.025454928156919 147.92555417049 10009.037641334 400105.4764243
29	625704 19520 0 100017 0 9997.50851387198 459 0.0083763041967624 162.50255515238 10018.237233904 450597.73038747
30	645224 21359 0 99985 0 9993.677473794844 502 0.049590159850486 145.77784375094 10023.912639235 402675.50081611
31	666583 19516 0 100025 0 9999.188190008633 458 0.086364465121311 155.02686225897 10001.856939014 455519.84516499
32	686099 21511 0 99801 0 9975.497082504346 505 0.0061519964086966 126.39687114564 10004.794336606 423557.35617291
33	707610 23163 0 99621 0 9954.389128543133 544 0.003792067039462 103.00804123098 10003.818789566 360469.44575044
34	730773 21665 0 99945 0 9986.860040498606 509 0.0096091145687741 117.14607531913 10007.403124155 374907.18788134
35	752438 21596 0 99977 0 9992.485521528041 507 0.10003682773786 136.91679712405 10011.171864499 410433.46640901
36	774034 20476 0 99697 0 9962.292076961249 481 0.019523854290852 123.03327887587 10075.882761805 413875.58331683
37	794510 22490 0 99935 0 9986.209857312786 529 0.063184527032 101.4057904876 10051.680401222 386713.62558751
38	817000 22435 0 99997 0 9995.38919539722 526 0.024594558216665 109.47376666667 10002.773926619 380340.57775517
39	839435 21486 0 99957 0 9989.270747438049 504 0.031937249492462 131.04437044554 10004.869501746 391092.98852232
40	860921 20456 0 99899 0 9984.141077251133 480 0.042171815120014 150.99100752428 10040.192416105 408295.37602832
41	881377 20088 0 99873 0 9981.051361264629 472 0.0077673227493106 126.06590635187 10007.052720562 396332.19438937
42	901465 21872 0 99813 0 9975.881412917333 514 0.052546083556771 145.31976887497 10085.620653138 418602.54463308
43	923337 20954 0 99803 0 9975.583742491894 492 0.056691179743236 124.0443687352 10038.108341455 401012.5685678
44	944291 19714 0 99569 0 9950.138591513122 463 0.0097342423724849 133.99978953529 10023.181868765 428201.91295236
45	964005 22726 0 99921 0 9985.428884117157 534 0.0010222690663683 174.45314655256 10030.080508533 407104.28490193
46	986731 21257 0 99889 0 9983.155814498831 499 0.02086641155883 208.1880980109 10027.023587405 435108.12572167
47	1007988 23175 0 99989 0 9993.883082383209 544 0.030346086546681 84.403177319603 10012.146037203 342431.41582316
48	1031163 20920 0 99885 0 9981.994017286144 491 0.071105986751129 110.25698313087 10051.536610444 393964.30220401
49	1052083 21215 0 100001 0 9995.509866510202 498 0.0058600508818419 131.41728473755 10042.038378848 371421.07521104
50	1073298 13137 1 99969 0.525364736932 9990.822778174567 458 1 1 458 458
51	1086435 21976 4 99972 0.625364736932 9990.922778174567 500 0.099999999998545 0.17207316456393 50.07207316456 5.0196091739622
52	1108411 13183 5 99813 1.350304353086 9975.881412917333 461 1 1 461 461
53	1121594 22570 8 99816 1.450304353086 9975.981412917333 513 0.099999999998545 0.12898304852501 51.328983048536 5.1366366268091
54	1144164 13370 9 99829 1.65992651012 9976.882581947104 466 1 1 466 466
55	1157534 23141 12 100000 1.75992651012 9995.48919539722 525 0.099999999998545 0.2124149707106 52.778746067529 5.3300715557099
56	1180675 12711 13 99627 2.030267873818 9954.743216279198 443 1 1 443 443
57	1193386 21990 16 99892 2.130267873818 9983.255814498831 498 0.099999999998545 0.13690880628747 49.836908806279 4.9887440212374
58	1215376 13534 17 99921 2.470338621905 9985.428884117157 473 1 1 473 473
59	1228910 13168 19 99509 2.555543458514 9942.951016555797 459 1 1 459 459
60	1242078 23398 22 99924 2.570338621905 9985.528884117157 533 0.099999999998545 0.1999319436527 53.55831240302 5.404276551374
61	1265476 23166 24 99512 2.655543458514 9943.051016555797 525 0.099999999998545 0.1212545213566 52.521254521354 5.2547026589489
62	1288642 12779 25 99885 2.72005967253 9981.994017286144 445 1 1 445 445
63	1301421 21579 28 99888 2.82005967253 9982.094017286144 490 0.099999999998545 0.1892036905283 49.171063078882 4.9458737590205
64	1323000 1489 29 99425 2.890805482373 9931.93430331136 52 1 1 52 52
65	1324489 22030 32 99428 2.990805482373 9932.03430331136 499 0.099999999998545 0.17286614127624 50.065343715697 5.0338648197155
66	1346519 13703 33 100011 3.354807823798 9996.248359614293 478 1 1 478 478
67	1360222 23193 36 100016 3.454807823798 9996.348359614293 526 0.099999999998545 0.17810851149 52.807945632817 5.3161194767723
68	1383415 13276 37 99935 3.895607906725 9986.209857312786 464 1 1 464 464
69	1396691 23199 40 99942 3.995607906725 9986.309857312786 528 0.099999999998545 0.15117453737366 52.851174537375 5.2928537407504
70	1419890 14072 41 99989 4.011186056206 9993.883082383209 491 1 1 491 491
71	1433962 13437 43 100009 4.077602339223 9996.218954580985 469 1 1 469 469
72	1447399 12939 45 99973 4.093357685528 9991.863566646104 450 1 1 450 450
73	1460338 23938 48 99992 4.111186056206 9993.983082383209 543 0.099999999998545 0.13178142781544 54.348931945341 5.4410905884736
74	1484276 22773 50 100014 4.177602339223 9996.318954580985 518 0.099999999998545 0.18541079614806 51.989996651536 5.2310256506326
75	1507049 22477 52 99976 4.193357685528 9991.963566646104 509 0.099999999998545 0.17075056750309 51.091414536366 5.1384050783944
76	1529526 12578 53 99761 4.579425894643 9971.165101055764 440 1 1 440 440
77	1542104 21230 56 99764 4.679425894643 9971.265101055764 483 0.099999999998545 0.16935135002859 48.429444743705 4.8634806950979
78	1563334 1286 63 97269 5.981550600929 9721.398286013906 45 1 1 45 45
79	1564620 20175 68 100028 6.081550600929 9999.288190008633 457 0.099999999998545 0.12524764541922 45.725247645418 4.5756869726827
80	1584795 12160 69 99877 6.207479312421 9981.332755184212 425 1 1 425 425
81	1596955 20830 72 99880 6.307479312421 9981.432755184212 473 0.099999999998545 0.10000000000036 47.299999999997 4.7299999999993
82	1617785 12245 73 99803 6.789862856486 9975.583742491894 427 1 1 427 427
83	1630030 21641 76 99808 6.889862856486 9975.683742491894 491 0.099999999998545 0.16214728836712 49.162147288372 4.9262917431258
84	1651671 11862 77 99873 7.048490079721 9981.051361264629 414 1 1 414 414
85	1663533 13239 79 99905 7.123634948101 9984.303542605999 461 1 1 461 461
86	1676772 20764 82 99876 7.148490079721 9981.151361264629 471 0.099999999998545 0.17212698978256 47.241648699898 4.7460095177048
87	1697536 22850 84 99908 7.223634948101 9984.403542605999 518 0.099999999998545 0.19730542535899 51.939906758512 5.2187434770237
88	1720386 1603 85 99845 7.729033380436 9978.502135748632 56 1 1 56 56
89	1721989 21987 88 99848 7.829033380436 9978.602135748632 500 0.099999999998545 0.19366955594523 50.20586087312 5.0577749302656
90	1743976 12379 89 100021 8.019548466481 9998.700818027411 432 1 1 432 432
91	1756355 21339 92 100024 8.119548466481 9998.800818027411 484 0.099999999998545 0.10000000000036 48.399999999993 4.8399999999986
92	1777694 13222 97 99977 10.461602504546 9992.485521528041 461 1 1 461 461
93	1790916 22295 104 99982 10.561602504546 9992.585521528041 506 0.099999999998545 0.18563406716794 50.714338871738 5.091024933613
94	1813211 13077 111 99929 10.907230344359 9986.064283558618 456 1 1 456 456
95	1826288 22260 116 99956 11.007230344359 9988.500311217515 505 0.099999999998545 0.10000000000036 50.500000000009 5.0500000000018
96	1848548 11920 117 99569 11.176603522625 9950.138591513122 416 1 1 416 416
97	1860468 20334 120 99572 11.276603522625 9950.238591513122 462 0.099999999998545 0.16562096302187 46.344841860848 4.6561886053407
98	1880802 13587 121 99541 11.430006362468 9946.646254905848 474 1 1 474 474
99	1894389 1424 123 98907 11.453839792544 9885.133109864553 50 1 1 50 50
100	1895813 23938 126 99544 11.530006362468 9946.746254905848 531 0.099999999998545 0.15683449054904 53.156834490552 5.3245970574263
101	1919751 22496 128 99920 11.553839792544 9985.136654437139 500 0.099999999998545 0.1942150334271 50.179798008049 5.0483365613476
102	1942247 13485 133 99817 13.262026102764 9976.335272497677 455 1 1 455 455
103	1955732 14301 135 99925 13.278600377286 9985.706073942231 483 1 1 483 483
104	1970033 22878 138 99820 13.362026102764 9976.435272497677 507 0.099999999998545 0.11947113707265 50.719471137066 5.0742733525921
105	1992911 23777 140 99928 13.378600377286 9985.806073942231 530 0.099999999998545 0.17508725184598 53.08375971561 5.3224652501396
106	2016688 13877 141 99717 13.633735666083 9964.3224254872 468 1 1 468 468
107	2030565 13176 143 100001 13.635828752389 9995.509866510202 444 1 1 444 444
108	2043741 22872 146 99948 13.733735666083 9986.960040498606 508 0.099999999998545 0.10530799448225 50.805307994486 5.0810897737026
109	2066613 22434 148 100006 13.735828752389 9995.609866510202 497 0.099999999998545 0.12933029513624 49.729330295119 4.9767263252367
110	2089047 12864 149 99749 13.805472967174 9969.338155529664 434 1 1 434 434
111	2101911 21919 152 99756 13.905472967174 9969.438155529664 487 0.099999999998545 0.12168876902433 48.721688769014 4.8748081565045
112	2123830 12757 153 99899 14.073895784098 9984.141077251133 429 1 1 429 429
113	2136587 21605 156 99904 14.173895784098 9984.241077251133 479 0.099999999998545 0.10000000000036 47.899999999984 4.7899999999968
114	2158192 13910 157 99721 14.413579226361 9964.54080303598 470 1 1 470 470
115	2172102 23053 160 99724 14.513579226361 9964.64080303598 513 0.099999999998545 0.17479702585797 51.479956859171 5.1764781543851
116	2195155 13651 161 99821 15.063978170199 9976.60843012854 461 1 1 461 461
117	2208806 23123 164 99840 15.163978170199 9977.111483812763 514 0.099999999998545 0.18528611978172 51.515944570976 5.1714025770522
118	2231929 14454 169 99621 15.802296588066 9954.389128543133 487 1 1 487 487
119	2246383 24483 172 99624 15.902296588066 9954.489128543133 543 0.099999999998545 0.10130984883608 54.30130984884 5.4302636854719
120	2270866 12979 173 99851 15.955158478006 9978.655653803697 437 1 1 437 437
121	2283845 22558 176 99856 16.055158478006 9978.755653803697 500 0.099999999998545 0.19963894027751 50.184258242346 5.0539399931713
122	2306403 13302 181 99265 17.138460749375 9916.471317477409 447 1 1 447 447
123	2319705 11689 193 100029 17.676324608463 9999.47196144913 395 1 1 395 395
124	2331394 20081 196 100032 17.776324608463 9999.57196144913 446 0.099999999998545 0.16202017046362 44.662020170467 4.4762505356378
125	2351475 14386 213 99733 19.313347302846 9968.204102723239 485 1 1 485 485
126	2365861 12703 215 99861 19.411445162826 9979.308258007333 428 1 1 428 428
127	2378564 24240 218 99736 19.413347302846 9968.304102723239 538 0.099999999998545 0.16724173577768 54.038347396817 5.440141617138
128	2402804 21774 220 99864 19.511445162826 9979.408258007333 483 0.099999999998545 0.18766134358611 48.494831691351 4.8830081491268
129	2424578 13325 221 99917 19.82216015794 9985.036654437139 450 1 1 450 450
130	2437903 12467 235 99909 20.033581114353 9984.479993601085 421 1 1 421 421
131	2450370 20892 240 99912 20.133581114353 9984.579993601085 465 0.099999999998545 0.11268939490037 46.512689394901 4.6526988997232
132	2471262 13135 257 99949 22.978710234746 9987.592366997662 443 1 1 443 443
133	2484397 22561 260 99952 23.078710234746 9987.692366997662 500 0.099999999998545 0.1949214096212 50.094921409622 5.0279943559288
134	2506958 12272 269 100033 24.003778731456 9999.859666740273 414 1 1 414 414
135	2519230 20564 272 100036 24.103778731456 9999.959666740273 457 0.099999999998545 0.19837985900813 45.843650729199 4.6104581941861
136	2539794 12528 285 100017 25.44176628254 9997.50851387198 423 1 1 423 423
137	2552322 20593 288 100020 25.54176628254 9997.60851387198 458 0.099999999998545 0.19871659147975 46.040116737945 4.6475640963933
138	2572915 13264 321 99985 30.773545855284 9993.677473794844 447 1 1 447 447
139	2586179 22577 324 99988 30.873545855284 9993.777473794844 501 0.099999999998545 0.18553936216449 50.410448881798 5.0933298394938
140	2608756 1185 329 99945 31.587844100304 9986.860040498606 40 1 1 40 40
141	2609941 13174 337 99645 32.570644823218 9958.01700970974 444 1 1 444 444
142	2623115 1386 339 99049 32.572651683373 9896.927549302073 47 1 1 47 47
143	2624501 1335 341 99767 32.610085038719 9971.654972906296 45 1 1 45 45
144	2625836 13998 359 100003 34.099901882417 9995.529940185233 472 1 1 472 472
145	2639834 23654 364 100008 34.199901882417 9995.629940185233 525 0.099999999998545 0.17447188876577 52.859678606591 5.3432106934878
146	2663488 1569 369 99141 34.519897944066 9904.099084511959 53 1 1 53 53
147	2665057 12778 393 99697 37.489107734394 9962.292076961249 431 1 1 431 431
148	2677835 21624 396 99700 37.589107734394 9962.392076961249 480 0.099999999998545 0.19324010510718 48.198946591246 4.8541779910389
149	2699459 13699 409 99801 38.479588623406 9975.497082504346 461 1 1 461 461
150	2713158 22768 412 99806 38.579588623406 9975.597082504346 504 0.099999999998545 0.19384800359103 50.560157869787 5.085236020089
151	2735926 1447 419 98081 39.237857832681 9802.573251083866 49 1 1 49 49
152	2737373 1547 505 98637 51.184326171849 9853.633064270093 52 1 1 52 52
153	2738920 14165 537 99979 53.63036520913 9992.527773103554 477 1 1 477 477
154	2753085 24379 544 99984 53.73036520913 9992.627773103554 540 0.099999999998545 0.18056657514899 54.085057053627 5.4235225481536
155	2777464 1310 557 96769 54.83343942822 9669.203806858762 44 1 1 44 44
156	2778774 1632 569 99251 56.167219311436 9915.5982957375 55 1 1 55 55
157	2780406 1693 573 99441 56.401739618675 9932.786775443156 57 1 1 57 57
158	2782099 1595 593 97891 57.455216447474 9781.383759838797 54 1 1 54 54
159	2783694 12129 607 99647 59.026887453549 9958.019060753534 409 1 1 409 409
160	2795823 20010 612 99652 59.126887453549 9958.119060753534 443 0.099999999998545 0.18558075336205 44.478380386681 4.4759894491308
161	2815833 1240 665 98069 63.564447383936 9801.858767934896 42 1 1 42 42
162	2817073 12245 685 100025 64.757972511259 9999.188190008633 412 1 1 412 412
163	2829318 1657 693 99481 65.42794915419 9938.985806105693 56 1 1 56 56
164	2830975 13625 745 99957 69.887585606519 9989.270747438049 459 1 1 459 459
165	2844600 22694 748 99960 69.987585606519 9989.370747438049 503 0.099999999998545 0.16287512066447 50.396161928338 5.054293678031
166	2867294 1888 879 99405 83.874604106618 9930.357588391975 64 1 1 64 64
167	2869182 1571 905 98541 86.364114143579 9842.249487325195 53 1 1 53 53
168	2870753 1866 933 96337 88.751641288944 9624.933949146282 63 1 1 63 63
169	2872619 1957 1013 99477 96.439936807861 9937.619566561221 66 1 1 66 66
170	2874576 1278 1065 96543 100.709042119659 9648.118113044968 43 1 1 43 43
171	2875854 1571 1097 99835 103.114620276774 9977.011483812763 53 1 1 53 53
172	2877425 1372 1117 97545 104.701456664738 9749.707262404283 46 1 1 46 46
173	2878797 1697 1121 99793 104.882092506136 9974.777108318378 57 1 1 57 57
174	2880494 1756 1171 98413 110.741106128376 9833.218566190688 59 1 1 59 59
175	2882250 1012 1201 97889 113.516777682309 9781.380323527339 34 1 1 34 34
176	2883262 1785 1233 98749 115.575186071931 9865.689094173872 60 1 1 60 60
177	2885047 1281 1289 99225 119.454978645063 9912.534389006432 43 1 1 43 43
178	2886328 1453 1305 99953 121.425799970193 9988.400311217515 49 1 1 49 49
179	2887781 1475 1313 98533 121.853189995297 9840.978269075593 50 1 1 50 50