file 5976930 1767629715                                         
version 3
run Lognormal-52-20260105-17:15:15-28123
attr configname Lognormal
attr datetime 20260105-17:15:15
attr datetimef 20260105-171515
attr experiment Lognormal
attr inifile omnetpp.ini
attr iterationvars "$N=100, $p=0.3"
attr iterationvarsd N=100/p=0.3
attr iterationvarsf N=100,p=0.3-
attr measurement "$N=100, $p=0.3"
attr network progetto.DatabaseNetwork
attr processid 28123
attr repetition 2
attr replication #2
attr resultdir results
attr runnumber 52
attr seedset 2
itervar N 100
itervar p 0.3
config description "Lognormal distribution (hotspots) - varia N e p"
config *.user[*].tableDistribution "\"lognormal\""
config *.user[*].lognormalM 1.5
config *.user[*].lognormalS 1.0
config *.numUsers 100
config *.user[*].readProbability 0.3
config network progetto.DatabaseNetwork
config sim-time-limit 10000s
config cpu-time-limit 3600s
config repeat 5
config seed-set 2
config output-vector-file "results/Lognormal-$N=100, $p=0.3-2.vec"
config output-scalar-file "results/Lognormal-$N=100, $p=0.3-2.sca"
config result-dir results
config **.vector-recording true
config **.scalar-recording true
config *.numTables 20
config *.user[*].lambda 0.05
config *.user[*].serviceTime 0.1s

vector 0 DatabaseNetwork.user[0] AccessInterval ETV
vector 1 DatabaseNetwork.user[1] AccessInterval ETV
vector 2 DatabaseNetwork.user[2] AccessInterval ETV
vector 3 DatabaseNetwork.user[3] AccessInterval ETV
vector 4 DatabaseNetwork.user[4] AccessInterval ETV
vector 5 DatabaseNetwork.user[5] AccessInterval ETV
vector 6 DatabaseNetwork.user[6] AccessInterval ETV
vector 7 DatabaseNetwork.user[7] AccessInterval ETV
vector 8 DatabaseNetwork.user[8] AccessInterval ETV
vector 9 DatabaseNetwork.user[9] AccessInterval ETV
vector 10 DatabaseNetwork.user[10] AccessInterval ETV
vector 11 DatabaseNetwork.user[11] AccessInterval ETV
vector 12 DatabaseNetwork.user[12] AccessInterval ETV
vector 13 DatabaseNetwork.user[13] AccessInterval ETV
vector 14 DatabaseNetwork.user[14] AccessInterval ETV
vector 15 DatabaseNetwork.user[15] AccessInterval ETV
vector 16 DatabaseNetwork.user[16] AccessInterval ETV
vector 17 DatabaseNetwork.user[17] AccessInterval ETV
vector 18 DatabaseNetwork.user[18] AccessInterval ETV
vector 19 DatabaseNetwork.user[19] AccessInterval ETV
vector 20 DatabaseNetwork.user[20] AccessInterval ETV
vector 21 DatabaseNetwork.user[21] AccessInterval ETV
vector 22 DatabaseNetwork.user[22] AccessInterval ETV
vector 23 DatabaseNetwork.user[23] AccessInterval ETV
vector 24 DatabaseNetwork.user[24] AccessInterval ETV
vector 25 DatabaseNetwork.user[25] AccessInterval ETV
vector 26 DatabaseNetwork.user[26] AccessInterval ETV
vector 27 DatabaseNetwork.user[27] AccessInterval ETV
vector 28 DatabaseNetwork.user[28] AccessInterval ETV
vector 29 DatabaseNetwork.user[29] AccessInterval ETV
vector 30 DatabaseNetwork.user[30] AccessInterval ETV
vector 31 DatabaseNetwork.user[31] AccessInterval ETV
vector 32 DatabaseNetwork.user[32] AccessInterval ETV
vector 33 DatabaseNetwork.user[33] AccessInterval ETV
vector 34 DatabaseNetwork.user[34] AccessInterval ETV
vector 35 DatabaseNetwork.user[35] AccessInterval ETV
vector 36 DatabaseNetwork.user[36] AccessInterval ETV
vector 37 DatabaseNetwork.user[37] AccessInterval ETV
vector 38 DatabaseNetwork.user[38] AccessInterval ETV
vector 39 DatabaseNetwork.user[39] AccessInterval ETV
vector 40 DatabaseNetwork.user[40] AccessInterval ETV
vector 41 DatabaseNetwork.user[41] AccessInterval ETV
vector 42 DatabaseNetwork.user[42] AccessInterval ETV
vector 43 DatabaseNetwork.user[43] AccessInterval ETV
vector 44 DatabaseNetwork.user[44] AccessInterval ETV
vector 45 DatabaseNetwork.user[45] AccessInterval ETV
vector 46 DatabaseNetwork.user[46] AccessInterval ETV
vector 47 DatabaseNetwork.user[47] AccessInterval ETV
vector 48 DatabaseNetwork.user[48] AccessInterval ETV
vector 49 DatabaseNetwork.user[49] AccessInterval ETV
vector 50 DatabaseNetwork.user[50] AccessInterval ETV
vector 51 DatabaseNetwork.user[51] AccessInterval ETV
vector 52 DatabaseNetwork.user[52] AccessInterval ETV
vector 53 DatabaseNetwork.user[53] AccessInterval ETV
vector 54 DatabaseNetwork.user[54] AccessInterval ETV
vector 55 DatabaseNetwork.user[55] AccessInterval ETV
vector 56 DatabaseNetwork.user[56] AccessInterval ETV
vector 57 DatabaseNetwork.user[57] AccessInterval ETV
vector 58 DatabaseNetwork.user[58] AccessInterval ETV
vector 59 DatabaseNetwork.user[59] AccessInterval ETV
vector 60 DatabaseNetwork.user[60] AccessInterval ETV
vector 61 DatabaseNetwork.user[61] AccessInterval ETV
vector 62 DatabaseNetwork.user[62] AccessInterval ETV
vector 63 DatabaseNetwork.user[63] AccessInterval ETV
vector 64 DatabaseNetwork.user[64] AccessInterval ETV
vector 65 DatabaseNetwork.user[65] AccessInterval ETV
vector 66 DatabaseNetwork.user[66] AccessInterval ETV
vector 67 DatabaseNetwork.user[67] AccessInterval ETV
vector 68 DatabaseNetwork.user[68] AccessInterval ETV
vector 69 DatabaseNetwork.user[69] AccessInterval ETV
vector 70 DatabaseNetwork.user[70] AccessInterval ETV
vector 71 DatabaseNetwork.user[71] AccessInterval ETV
vector 72 DatabaseNetwork.user[72] AccessInterval ETV
vector 73 DatabaseNetwork.user[73] AccessInterval ETV
vector 74 DatabaseNetwork.user[74] AccessInterval ETV
vector 75 DatabaseNetwork.user[75] AccessInterval ETV
vector 76 DatabaseNetwork.user[76] AccessInterval ETV
vector 77 DatabaseNetwork.user[77] AccessInterval ETV
vector 78 DatabaseNetwork.user[78] AccessInterval ETV
vector 79 DatabaseNetwork.user[79] AccessInterval ETV
vector 80 DatabaseNetwork.user[80] AccessInterval ETV
vector 81 DatabaseNetwork.user[81] AccessInterval ETV
vector 82 DatabaseNetwork.user[82] AccessInterval ETV
vector 83 DatabaseNetwork.user[83] AccessInterval ETV
vector 84 DatabaseNetwork.user[84] AccessInterval ETV
vector 85 DatabaseNetwork.user[85] AccessInterval ETV
vector 86 DatabaseNetwork.user[86] AccessInterval ETV
vector 87 DatabaseNetwork.user[87] AccessInterval ETV
vector 88 DatabaseNetwork.user[88] AccessInterval ETV
vector 89 DatabaseNetwork.user[89] AccessInterval ETV
vector 90 DatabaseNetwork.user[90] AccessInterval ETV
vector 91 DatabaseNetwork.user[91] AccessInterval ETV
vector 92 DatabaseNetwork.user[92] AccessInterval ETV
vector 93 DatabaseNetwork.user[93] AccessInterval ETV
vector 94 DatabaseNetwork.user[94] AccessInterval ETV
vector 95 DatabaseNetwork.user[95] AccessInterval ETV
vector 96 DatabaseNetwork.user[96] AccessInterval ETV
vector 97 DatabaseNetwork.user[97] AccessInterval ETV
vector 98 DatabaseNetwork.user[98] AccessInterval ETV
vector 99 DatabaseNetwork.user[99] AccessInterval ETV
vector 100 DatabaseNetwork.user[2] ReadAccesses ETV
vector 101 DatabaseNetwork.user[2] WaitTime ETV
vector 102 DatabaseNetwork.user[42] WriteAccesses ETV
vector 103 DatabaseNetwork.user[42] WaitTime ETV
vector 104 DatabaseNetwork.user[38] ReadAccesses ETV
vector 105 DatabaseNetwork.user[38] WaitTime ETV
vector 106 DatabaseNetwork.user[46] ReadAccesses ETV
vector 107 DatabaseNetwork.user[46] WaitTime ETV
vector 108 DatabaseNetwork.user[54] WriteAccesses ETV
vector 109 DatabaseNetwork.user[54] WaitTime ETV
vector 110 DatabaseNetwork.user[45] WriteAccesses ETV
vector 111 DatabaseNetwork.user[75] ReadAccesses ETV
vector 112 DatabaseNetwork.user[15] WriteAccesses ETV
vector 113 DatabaseNetwork.user[45] WaitTime ETV
vector 114 DatabaseNetwork.user[75] WaitTime ETV
vector 115 DatabaseNetwork.user[15] WaitTime ETV
vector 116 DatabaseNetwork.user[48] ReadAccesses ETV
vector 117 DatabaseNetwork.user[48] WaitTime ETV
vector 118 DatabaseNetwork.user[24] WriteAccesses ETV
vector 119 DatabaseNetwork.user[24] WaitTime ETV
vector 120 DatabaseNetwork.user[77] WriteAccesses ETV
vector 121 DatabaseNetwork.user[77] WaitTime ETV
vector 122 DatabaseNetwork.user[11] WriteAccesses ETV
vector 123 DatabaseNetwork.user[11] WaitTime ETV
vector 124 DatabaseNetwork.user[76] WriteAccesses ETV
vector 125 DatabaseNetwork.user[76] WaitTime ETV
vector 126 DatabaseNetwork.user[76] ReadAccesses ETV
vector 127 DatabaseNetwork.user[59] ReadAccesses ETV
vector 128 DatabaseNetwork.user[59] WaitTime ETV
vector 129 DatabaseNetwork.user[37] ReadAccesses ETV
vector 130 DatabaseNetwork.user[37] WaitTime ETV
vector 131 DatabaseNetwork.user[47] WriteAccesses ETV
vector 132 DatabaseNetwork.user[28] WriteAccesses ETV
vector 133 DatabaseNetwork.user[1] WriteAccesses ETV
vector 134 DatabaseNetwork.user[47] WaitTime ETV
vector 135 DatabaseNetwork.user[28] WaitTime ETV
vector 136 DatabaseNetwork.user[1] WaitTime ETV
vector 137 DatabaseNetwork.user[62] ReadAccesses ETV
vector 138 DatabaseNetwork.user[12] ReadAccesses ETV
vector 139 DatabaseNetwork.user[62] WaitTime ETV
vector 140 DatabaseNetwork.user[12] WaitTime ETV
vector 141 DatabaseNetwork.user[83] WriteAccesses ETV
vector 142 DatabaseNetwork.user[56] WriteAccesses ETV
vector 143 DatabaseNetwork.user[83] WaitTime ETV
vector 144 DatabaseNetwork.user[53] WriteAccesses ETV
vector 145 DatabaseNetwork.user[56] WaitTime ETV
vector 146 DatabaseNetwork.user[53] WaitTime ETV
vector 147 DatabaseNetwork.user[52] WriteAccesses ETV
vector 148 DatabaseNetwork.user[52] WaitTime ETV
vector 149 DatabaseNetwork.user[31] ReadAccesses ETV
vector 150 DatabaseNetwork.user[89] WriteAccesses ETV
vector 151 DatabaseNetwork.user[31] WaitTime ETV
vector 152 DatabaseNetwork.user[89] WaitTime ETV
vector 153 DatabaseNetwork.user[18] WriteAccesses ETV
vector 154 DatabaseNetwork.user[18] WaitTime ETV
vector 155 DatabaseNetwork.user[97] WriteAccesses ETV
vector 156 DatabaseNetwork.user[97] WaitTime ETV
vector 157 DatabaseNetwork.user[43] WriteAccesses ETV
vector 158 DatabaseNetwork.user[43] WaitTime ETV
vector 159 DatabaseNetwork.user[41] WriteAccesses ETV
vector 160 DatabaseNetwork.user[16] WriteAccesses ETV
vector 161 DatabaseNetwork.user[41] WaitTime ETV
vector 162 DatabaseNetwork.user[16] WaitTime ETV
vector 163 DatabaseNetwork.user[87] WriteAccesses ETV
vector 164 DatabaseNetwork.user[87] WaitTime ETV
vector 165 DatabaseNetwork.user[9] ReadAccesses ETV
vector 166 DatabaseNetwork.user[9] WaitTime ETV
vector 167 DatabaseNetwork.user[10] WriteAccesses ETV
vector 168 DatabaseNetwork.user[10] WaitTime ETV
vector 169 DatabaseNetwork.user[86] WriteAccesses ETV
vector 170 DatabaseNetwork.user[86] WaitTime ETV
vector 171 DatabaseNetwork.user[58] ReadAccesses ETV
vector 172 DatabaseNetwork.user[58] WaitTime ETV
vector 173 DatabaseNetwork.user[93] ReadAccesses ETV
vector 174 DatabaseNetwork.user[93] WaitTime ETV
vector 175 DatabaseNetwork.user[61] WriteAccesses ETV
vector 176 DatabaseNetwork.user[61] WaitTime ETV
vector 177 DatabaseNetwork.user[70] ReadAccesses ETV
vector 178 DatabaseNetwork.user[70] WaitTime ETV
vector 179 DatabaseNetwork.user[15] ReadAccesses ETV
vector 180 DatabaseNetwork.user[35] ReadAccesses ETV
vector 181 DatabaseNetwork.user[35] WaitTime ETV
vector 182 DatabaseNetwork.user[8] WriteAccesses ETV
vector 183 DatabaseNetwork.user[8] WaitTime ETV
vector 184 DatabaseNetwork.user[90] ReadAccesses ETV
vector 185 DatabaseNetwork.user[44] ReadAccesses ETV
vector 186 DatabaseNetwork.user[44] WaitTime ETV
vector 187 DatabaseNetwork.user[90] WaitTime ETV
vector 188 DatabaseNetwork.user[6] ReadAccesses ETV
vector 189 DatabaseNetwork.user[0] WriteAccesses ETV
vector 190 DatabaseNetwork.user[92] ReadAccesses ETV
vector 191 DatabaseNetwork.user[6] WaitTime ETV
vector 192 DatabaseNetwork.user[0] WaitTime ETV
vector 193 DatabaseNetwork.user[92] WaitTime ETV
vector 194 DatabaseNetwork.user[60] ReadAccesses ETV
vector 195 DatabaseNetwork.user[95] WriteAccesses ETV
vector 196 DatabaseNetwork.user[63] ReadAccesses ETV
vector 197 DatabaseNetwork.user[59] WriteAccesses ETV
vector 198 DatabaseNetwork.user[60] WaitTime ETV
vector 199 DatabaseNetwork.user[95] WaitTime ETV
vector 200 DatabaseNetwork.user[63] WaitTime ETV
vector 201 DatabaseNetwork.user[37] WriteAccesses ETV
vector 202 DatabaseNetwork.user[66] ReadAccesses ETV
vector 203 DatabaseNetwork.user[7] WriteAccesses ETV
vector 204 DatabaseNetwork.user[17] WriteAccesses ETV
vector 205 DatabaseNetwork.user[66] WaitTime ETV
vector 206 DatabaseNetwork.user[7] WaitTime ETV
vector 207 DatabaseNetwork.user[11] ReadAccesses ETV
vector 208 DatabaseNetwork.user[17] WaitTime ETV
vector 209 DatabaseNetwork.user[93] WriteAccesses ETV
vector 210 DatabaseNetwork.user[34] WriteAccesses ETV
vector 211 DatabaseNetwork.user[49] WriteAccesses ETV
vector 212 DatabaseNetwork.user[34] WaitTime ETV
vector 213 DatabaseNetwork.user[49] WaitTime ETV
vector 214 DatabaseNetwork.user[25] WriteAccesses ETV
vector 215 DatabaseNetwork.user[82] ReadAccesses ETV
vector 216 DatabaseNetwork.user[25] WaitTime ETV
vector 217 DatabaseNetwork.user[82] WaitTime ETV
vector 218 DatabaseNetwork.user[68] ReadAccesses ETV
vector 219 DatabaseNetwork.user[40] ReadAccesses ETV
vector 220 DatabaseNetwork.user[62] WriteAccesses ETV
vector 221 DatabaseNetwork.user[68] WaitTime ETV
vector 222 DatabaseNetwork.user[40] WaitTime ETV
vector 223 DatabaseNetwork.user[81] WriteAccesses ETV
vector 224 DatabaseNetwork.user[81] WaitTime ETV
vector 225 DatabaseNetwork.user[26] WriteAccesses ETV
vector 226 DatabaseNetwork.user[26] WaitTime ETV
vector 227 DatabaseNetwork.user[40] WriteAccesses ETV
vector 228 DatabaseNetwork.user[22] WriteAccesses ETV
vector 229 DatabaseNetwork.user[22] WaitTime ETV
vector 230 DatabaseNetwork.user[96] WriteAccesses ETV
vector 231 DatabaseNetwork.user[96] WaitTime ETV
vector 232 DatabaseNetwork.user[33] WriteAccesses ETV
vector 233 DatabaseNetwork.user[33] WaitTime ETV
vector 234 DatabaseNetwork.user[4] ReadAccesses ETV
vector 235 DatabaseNetwork.user[4] WaitTime ETV
vector 236 DatabaseNetwork.user[44] WriteAccesses ETV
vector 237 DatabaseNetwork.user[54] ReadAccesses ETV
vector 238 DatabaseNetwork.user[51] ReadAccesses ETV
vector 239 DatabaseNetwork.user[88] WriteAccesses ETV
vector 240 DatabaseNetwork.user[51] WaitTime ETV
vector 241 DatabaseNetwork.user[88] WaitTime ETV
vector 242 DatabaseNetwork.user[57] WriteAccesses ETV
vector 243 DatabaseNetwork.user[57] WaitTime ETV
vector 244 DatabaseNetwork.user[74] WriteAccesses ETV
vector 245 DatabaseNetwork.user[42] ReadAccesses ETV
vector 246 DatabaseNetwork.user[74] WaitTime ETV
vector 247 DatabaseNetwork.user[57] ReadAccesses ETV
vector 248 DatabaseNetwork.user[27] WriteAccesses ETV
vector 249 DatabaseNetwork.user[27] WaitTime ETV
vector 250 DatabaseNetwork.user[50] ReadAccesses ETV
vector 251 DatabaseNetwork.user[74] ReadAccesses ETV
vector 252 DatabaseNetwork.user[50] WaitTime ETV
vector 253 DatabaseNetwork.user[71] WriteAccesses ETV
vector 254 DatabaseNetwork.user[71] WaitTime ETV
vector 255 DatabaseNetwork.user[14] ReadAccesses ETV
vector 256 DatabaseNetwork.user[90] WriteAccesses ETV
vector 257 DatabaseNetwork.user[20] WriteAccesses ETV
vector 258 DatabaseNetwork.user[14] WaitTime ETV
vector 259 DatabaseNetwork.user[20] WaitTime ETV
vector 260 DatabaseNetwork.user[19] WriteAccesses ETV
vector 261 DatabaseNetwork.user[19] WaitTime ETV
vector 262 DatabaseNetwork.user[64] WriteAccesses ETV
vector 263 DatabaseNetwork.user[64] WaitTime ETV
vector 264 DatabaseNetwork.user[58] WriteAccesses ETV
vector 265 DatabaseNetwork.user[65] WriteAccesses ETV
vector 266 DatabaseNetwork.user[65] WaitTime ETV
vector 267 DatabaseNetwork.user[17] ReadAccesses ETV
vector 268 DatabaseNetwork.user[69] WriteAccesses ETV
vector 269 DatabaseNetwork.user[69] WaitTime ETV
vector 270 DatabaseNetwork.user[77] ReadAccesses ETV
vector 271 DatabaseNetwork.user[68] WriteAccesses ETV
vector 272 DatabaseNetwork.user[43] ReadAccesses ETV
vector 273 DatabaseNetwork.user[23] WriteAccesses ETV
vector 274 DatabaseNetwork.user[23] WaitTime ETV
vector 275 DatabaseNetwork.user[27] ReadAccesses ETV
vector 276 DatabaseNetwork.user[13] WriteAccesses ETV
vector 277 DatabaseNetwork.user[1] ReadAccesses ETV
vector 278 DatabaseNetwork.user[13] WaitTime ETV
vector 279 DatabaseNetwork.user[78] WriteAccesses ETV
vector 280 DatabaseNetwork.user[78] WaitTime ETV
vector 281 DatabaseNetwork.user[70] WriteAccesses ETV
vector 282 DatabaseNetwork.user[12] WriteAccesses ETV
vector 283 DatabaseNetwork.user[29] ReadAccesses ETV
vector 284 DatabaseNetwork.user[33] ReadAccesses ETV
vector 285 DatabaseNetwork.user[29] WaitTime ETV
vector 286 DatabaseNetwork.user[63] WriteAccesses ETV
vector 287 DatabaseNetwork.user[23] ReadAccesses ETV
vector 288 DatabaseNetwork.user[31] WriteAccesses ETV
vector 289 DatabaseNetwork.user[25] ReadAccesses ETV
vector 290 DatabaseNetwork.user[45] ReadAccesses ETV
vector 291 DatabaseNetwork.user[65] ReadAccesses ETV
vector 292 DatabaseNetwork.user[50] WriteAccesses ETV
vector 293 DatabaseNetwork.user[14] WriteAccesses ETV
vector 294 DatabaseNetwork.user[38] WriteAccesses ETV
vector 295 DatabaseNetwork.user[55] WriteAccesses ETV
vector 296 DatabaseNetwork.user[55] WaitTime ETV
vector 297 DatabaseNetwork.user[18] ReadAccesses ETV
vector 298 DatabaseNetwork.user[94] WriteAccesses ETV
vector 299 DatabaseNetwork.user[94] WaitTime ETV
vector 300 DatabaseNetwork.user[30] WriteAccesses ETV
vector 301 DatabaseNetwork.user[30] WaitTime ETV
vector 302 DatabaseNetwork.user[0] ReadAccesses ETV
vector 303 DatabaseNetwork.user[67] WriteAccesses ETV
vector 304 DatabaseNetwork.user[72] ReadAccesses ETV
vector 305 DatabaseNetwork.user[67] WaitTime ETV
vector 306 DatabaseNetwork.user[72] WaitTime ETV
vector 307 DatabaseNetwork.user[99] WriteAccesses ETV
vector 308 DatabaseNetwork.user[99] WaitTime ETV
vector 309 DatabaseNetwork.user[96] ReadAccesses ETV
vector 310 DatabaseNetwork.user[91] WriteAccesses ETV
vector 311 DatabaseNetwork.user[91] WaitTime ETV
vector 312 DatabaseNetwork.user[88] ReadAccesses ETV
vector 313 DatabaseNetwork.user[21] WriteAccesses ETV
vector 314 DatabaseNetwork.user[21] WaitTime ETV
vector 315 DatabaseNetwork.user[35] WriteAccesses ETV
vector 316 DatabaseNetwork.user[36] WriteAccesses ETV
vector 317 DatabaseNetwork.user[36] WaitTime ETV
vector 318 DatabaseNetwork.user[79] ReadAccesses ETV
vector 319 DatabaseNetwork.user[79] WaitTime ETV
vector 320 DatabaseNetwork.user[32] WriteAccesses ETV
vector 321 DatabaseNetwork.user[32] WaitTime ETV
vector 322 DatabaseNetwork.user[22] ReadAccesses ETV
vector 323 DatabaseNetwork.user[71] ReadAccesses ETV
vector 324 DatabaseNetwork.user[84] WriteAccesses ETV
vector 325 DatabaseNetwork.user[84] WaitTime ETV
vector 326 DatabaseNetwork.user[4] WriteAccesses ETV
vector 327 DatabaseNetwork.user[51] WriteAccesses ETV
vector 328 DatabaseNetwork.user[92] WriteAccesses ETV
vector 329 DatabaseNetwork.user[19] ReadAccesses ETV
vector 330 DatabaseNetwork.user[86] ReadAccesses ETV
vector 331 DatabaseNetwork.user[32] ReadAccesses ETV
vector 332 DatabaseNetwork.user[28] ReadAccesses ETV
vector 333 DatabaseNetwork.user[97] ReadAccesses ETV
vector 334 DatabaseNetwork.user[46] WriteAccesses ETV
vector 335 DatabaseNetwork.user[21] ReadAccesses ETV
vector 336 DatabaseNetwork.user[29] WriteAccesses ETV
vector 337 DatabaseNetwork.user[3] WriteAccesses ETV
vector 338 DatabaseNetwork.user[3] WaitTime ETV
vector 339 DatabaseNetwork.user[72] WriteAccesses ETV
vector 340 DatabaseNetwork.user[81] ReadAccesses ETV
vector 341 DatabaseNetwork.user[64] ReadAccesses ETV
vector 342 DatabaseNetwork.user[8] ReadAccesses ETV
vector 343 DatabaseNetwork.user[48] WriteAccesses ETV
vector 344 DatabaseNetwork.user[94] ReadAccesses ETV
vector 345 DatabaseNetwork.user[6] WriteAccesses ETV
vector 346 DatabaseNetwork.user[99] ReadAccesses ETV
vector 347 DatabaseNetwork.user[7] ReadAccesses ETV
vector 348 DatabaseNetwork.user[66] WriteAccesses ETV
vector 349 DatabaseNetwork.user[5] WriteAccesses ETV
vector 350 DatabaseNetwork.user[5] WaitTime ETV
vector 351 DatabaseNetwork.user[98] ReadAccesses ETV
vector 352 DatabaseNetwork.user[98] WaitTime ETV
vector 353 DatabaseNetwork.user[16] ReadAccesses ETV
vector 354 DatabaseNetwork.user[47] ReadAccesses ETV
vector 355 DatabaseNetwork.user[61] ReadAccesses ETV
vector 356 DatabaseNetwork.user[84] ReadAccesses ETV
vector 357 DatabaseNetwork.user[5] ReadAccesses ETV
vector 358 DatabaseNetwork.user[80] ReadAccesses ETV
vector 359 DatabaseNetwork.user[80] WaitTime ETV
vector 360 DatabaseNetwork.user[60] WriteAccesses ETV
vector 361 DatabaseNetwork.user[75] WriteAccesses ETV
vector 362 DatabaseNetwork.user[39] WriteAccesses ETV
vector 363 DatabaseNetwork.user[39] WaitTime ETV
vector 364 DatabaseNetwork.user[2] WriteAccesses ETV
vector 365 DatabaseNetwork.user[53] ReadAccesses ETV
vector 366 DatabaseNetwork.user[20] ReadAccesses ETV
vector 367 DatabaseNetwork.user[3] ReadAccesses ETV
vector 368 DatabaseNetwork.user[10] ReadAccesses ETV
vector 369 DatabaseNetwork.user[39] ReadAccesses ETV
vector 370 DatabaseNetwork.user[89] ReadAccesses ETV
vector 371 DatabaseNetwork.user[67] ReadAccesses ETV
vector 372 DatabaseNetwork.user[34] ReadAccesses ETV
vector 373 DatabaseNetwork.user[36] ReadAccesses ETV
vector 374 DatabaseNetwork.user[79] WriteAccesses ETV
vector 375 DatabaseNetwork.user[73] ReadAccesses ETV
vector 376 DatabaseNetwork.user[73] WaitTime ETV
vector 377 DatabaseNetwork.user[9] WriteAccesses ETV
vector 378 DatabaseNetwork.user[55] ReadAccesses ETV
vector 379 DatabaseNetwork.user[91] ReadAccesses ETV
vector 380 DatabaseNetwork.user[87] ReadAccesses ETV
vector 381 DatabaseNetwork.user[98] WriteAccesses ETV
vector 382 DatabaseNetwork.user[85] WriteAccesses ETV
vector 383 DatabaseNetwork.user[85] WaitTime ETV
vector 384 DatabaseNetwork.user[56] ReadAccesses ETV
vector 385 DatabaseNetwork.user[85] ReadAccesses ETV
vector 386 DatabaseNetwork.user[52] ReadAccesses ETV
vector 387 DatabaseNetwork.user[24] ReadAccesses ETV
vector 388 DatabaseNetwork.user[73] WriteAccesses ETV
vector 389 DatabaseNetwork.user[80] WriteAccesses ETV
vector 390 DatabaseNetwork.user[30] ReadAccesses ETV
vector 391 DatabaseNetwork.user[78] ReadAccesses ETV
vector 392 DatabaseNetwork.user[26] ReadAccesses ETV
vector 393 DatabaseNetwork.user[82] WriteAccesses ETV
vector 394 DatabaseNetwork.user[69] ReadAccesses ETV
vector 395 DatabaseNetwork.user[13] ReadAccesses ETV
vector 396 DatabaseNetwork.user[95] ReadAccesses ETV
vector 397 DatabaseNetwork.user[49] ReadAccesses ETV
vector 398 DatabaseNetwork.user[83] ReadAccesses ETV
vector 399 DatabaseNetwork.user[41] ReadAccesses ETV
0	22141 21720 0 200223 0 9997.121778361235 515 0.056524901760537 118.44100838256 10003.535838938 378506.32172137
1	43861 20751 0 199533 0 9959.823200972446 492 0.011194971020815 133.79271592635 10017.221489021 419764.53903758
2	64612 21363 0 198889 0 9924.665287031497 507 0.074519927738508 180.9445686956 10015.388472046 401908.50929157
3	85975 19783 0 199273 0 9946.321900739692 469 0.11568177121944 127.69113976038 10017.150108592 424310.32857876
4	105758 19573 0 199927 0 9979.995472735467 465 0.08625639005912 138.87714528233 10008.357155889 417544.01017539
5	125331 22128 0 199745 0 9969.843377867283 526 0.010989067165301 120.07477409379 10017.268922464 358828.6356027
6	147459 22434 0 200077 0 9988.97559449319 533 0.022240852366387 101.697661368 10016.408120849 373347.41756703
7	169893 23424 0 198763 0 9919.569975765401 556 0.066130813377294 147.50664114338 10010.637559054 362924.21179143
8	193317 20114 0 200285 0 9999.627236079482 478 0.033448917446812 155.14192886108 10035.496756529 419211.56020218
9	213431 21107 0 199937 0 9980.684635882199 501 0.11401631534925 110.91422216056 10019.129798464 379928.92398977
10	234538 22477 0 200031 0 9985.316156459287 521 0.076083903194693 119.89481283504 10078.258617819 370617.38586885
11	257015 20629 0 200035 0 9985.364717706413 479 0.018669481757194 171.10659978863 10015.115080653 453808.51996303
12	277644 19417 0 200063 0 9988.304453607818 451 0.018838959704726 123.65287869439 10011.538098573 444246.22584764
13	297061 20719 0 200209 0 9996.677156219686 481 0.1093969029273 208.73583293381 10034.272032802 432128.64758319
14	317780 20851 0 199313 0 9949.225315775307 483 0.021800308351851 148.7259508278 10026.945098317 448220.9381721
15	338631 20860 0 199709 0 9968.553251837915 484 0.034529652507273 126.29177403322 10030.914707214 433182.51936029
16	359491 22385 0 199905 0 9978.267597385697 519 0.00049864563580997 117.29759914107 10017.988810794 385586.54958807
17	381876 20482 0 199895 0 9977.764199570799 475 0.13422079612139 142.05384896591 10023.399677811 424304.44425151
18	402358 22020 0 199913 0 9978.704758863065 511 0.021045552797268 127.52290861255 10058.23586194 392484.79325767
19	424378 21809 0 200193 0 9995.740396324082 505 0.012986987365411 114.30939792652 10057.79533036 392518.80132882
20	446187 21944 0 200161 0 9993.675422299164 508 0.1090697635299 133.83093052561 10044.786321147 409408.62688284
21	468131 22637 0 200101 0 9990.322004214964 525 0.046830526188951 108.36430857876 10010.903496924 364546.71000309
22	490768 20899 0 200201 0 9996.143680463154 485 0.066161513347026 121.9514875358 10051.13879012 397364.30109618
23	511667 21704 0 200053 0 9987.450520257896 503 0.030495810009733 101.84873357053 10008.74120689 403521.59364944
24	533371 21003 0 199809 0 9974.416353988724 487 0.013848204792774 151.39712151306 10028.146805982 425306.75458256
25	554374 21930 0 200245 0 9997.886971909248 508 0.10033452239092 116.93197602373 10013.268253199 385556.34775111
26	576304 22545 0 199637 0 9964.305511378236 523 0.0028342014326747 107.69267668718 10001.797529796 382216.44862802
27	598849 22688 0 200011 0 9985.021561178073 527 0.0941732493008 155.6115511679 10015.282986103 383503.24248722
28	621537 21721 0 200227 0 9997.213671351431 504 0.03783842448412 127.91485798385 10010.704747859 401605.49413977
29	643258 21046 0 200093 0 9989.879398196356 488 0.036222724971716 174.28421491782 10000.916603395 407218.31690739
30	664304 22307 0 200061 0 9988.238402323447 517 0.024450212605637 113.42716858777 10003.669555303 393855.45098591
31	686611 23611 0 200275 0 9999.291218320462 547 0.023374796000709 132.27956556964 10014.897026372 364873.66903586
32	710222 23237 0 200021 0 9985.136860103902 539 0.054991909756745 177.3773106571 10024.865806679 404483.64167883
33	733459 21136 0 199765 0 9971.368688875733 489 0.05420115202234 145.09976908843 10048.468618886 462065.13770429
34	754595 22795 0 200211 0 9996.684565678817 529 0.027306122793979 146.18966596103 10002.127102423 374326.67773518
35	777390 22858 0 200249 0 9998.066513140195 531 0.0062926279538108 132.45576891689 10003.088012848 368192.97020721
36	800248 20788 0 199217 0 9944.094972300869 482 0.023411747509908 129.03355653082 10028.419782969 391221.97821382
37	821036 20976 0 199697 0 9968.136764839292 487 0.051718301887234 121.97752234906 10021.414760282 407686.89825137
38	842012 21285 0 200095 0 9989.975680495374 494 0.094078124414919 149.49837276484 10016.03250334 396506.81870115
39	863297 20734 0 199413 0 9956.045711093877 480 0.064403851278082 136.88658335858 10025.440348571 410916.0420518
40	884031 22324 0 200281 0 9999.441457224514 517 0.047019146602107 116.73640980452 10001.560252739 387396.42980869
41	906355 21663 0 199869 0 9977.148451476758 502 0.017259930756096 106.01361232482 10029.077051219 389612.62614134
42	928018 21656 0 200137 0 9992.751230969186 503 0.038167260771671 175.580654916 10037.290294605 423288.47580655
43	949674 20929 0 200255 0 9998.57531051012 486 0.02302018433254 117.04111839799 10001.708598531 387766.27487001
44	970603 22839 0 200043 0 9985.531428750115 530 0.054035758544133 118.10381786993 10006.997922222 375859.72616953
45	993442 22116 0 199883 0 9977.398062007166 513 0.12791283055401 124.21530712403 10008.121596262 377954.16894526
46	1015558 20080 0 199303 0 9948.257608135223 466 0.063475825036381 162.54739276481 10008.764219721 438424.612398
47	1035638 20379 0 200269 0 9999.011749303496 472 0.036217383485284 159.18160651221 10003.815482313 439711.34351696
48	1056017 21992 0 198377 0 9896.147377050384 510 0.035342173376307 111.47432129128 10006.781824674 356556.79409929
49	1078009 20695 0 200153 0 9993.485533641526 480 0.00048460094615418 160.93562251668 10042.940193215 434322.12835532
50	1098704 21044 0 200081 0 9989.213444421062 488 0.00040819353674897 108.00145009599 10003.84194243 390317.0188438
51	1119748 22245 0 199965 0 9982.326349305322 516 0.0040032203866913 110.07052042163 10038.764018828 385883.41020316
52	1141993 22872 0 199661 0 9966.246536999465 530 0.0027329665498432 104.02257911056 10023.480011408 369118.99436153
53	1164865 22688 0 199887 0 9977.432937542168 526 0.022434499569209 155.8205632299 10014.126469043 393658.50303266
54	1187553 22302 0 200123 0 9991.754515419224 517 0.036628210934724 128.42234338849 10000.735420387 376497.35151207
55	1209855 21475 0 199997 0 9984.435038576914 498 0.006317138776425 132.65654588579 10001.145223581 402085.69717195
56	1231330 21346 0 200205 0 9996.295324596711 494 0.028941522936846 174.7784300953 10001.768081444 416312.57739127
57	1252676 21842 0 200149 0 9992.923524332667 506 0.0026781694304134 124.12840361483 10021.943305267 397359.85507182
58	1274518 22562 0 199665 0 9966.580270820335 523 0.08306160446399 106.59684264428 10038.400967348 368020.99641382
59	1297080 21155 0 199467 0 9957.594405276123 490 2.9522947405411e-05 191.7497072224 10020.382560307 466548.61606097
60	1318235 19838 0 199601 0 9962.416777916757 461 0.13439009345105 115.87022314232 10010.420384351 423544.15604163
61	1338073 21263 0 200253 0 9998.486859544387 493 0.0093716124287715 215.18418101735 10002.672756058 413732.32329995
62	1359336 20509 0 199621 0 9963.718792280199 477 0.0094943534285633 120.71347986316 10000.05737018 421860.53577864
63	1379845 21960 0 200241 0 9997.754044233197 510 0.072437775689117 105.07061185178 10028.121284082 366180.78714475
64	1401805 22257 0 199277 0 9946.658845022164 516 0.017035280173959 107.75840736567 10004.893131409 370825.35001808
65	1424062 20390 0 199951 0 9981.443754681784 472 0.024226078013253 144.05112703257 10002.481502409 443182.29524772
66	1444452 22077 0 199921 0 9979.846532509478 512 0.0010410129000028 159.60573080345 10037.275084527 405191.91596248