file 2931628 1767628882                                         
version 3
run Lognormal-1-20260105-17:01:22-25149
attr configname Lognormal
attr datetime 20260105-17:01:22
attr datetimef 20260105-170122
attr experiment Lognormal
attr inifile omnetpp.ini
attr iterationvars "$N=50, $p=0.3"
attr iterationvarsd N=50/p=0.3
attr iterationvarsf N=50,p=0.3-
attr measurement "$N=50, $p=0.3"
attr network progetto.DatabaseNetwork
attr processid 25149
attr repetition 1
attr replication #1
attr resultdir results
attr runnumber 1
attr seedset 1
itervar N 50
itervar p 0.3
config description "Lognormal distribution (hotspots) - varia N e p"
config *.user[*].tableDistribution "\"lognormal\""
config *.user[*].lognormalM 1.5
config *.user[*].lognormalS 1.0
config *.numUsers 50
config *.user[*].readProbability 0.3
config network progetto.DatabaseNetwork
config sim-time-limit 10000s
config cpu-time-limit 3600s
config repeat 5
config seed-set 1
config output-vector-file "results/Lognormal-$N=50, $p=0.3-1.vec"
config output-scalar-file "results/Lognormal-$N=50, $p=0.3-1.sca"
config result-dir results
config **.vector-recording true
config **.scalar-recording true
config *.numTables 20
config *.user[*].lambda 0.05
config *.user[*].serviceTime 0.1s

vector 0 DatabaseNetwork.user[0] AccessInterval ETV
vector 1 DatabaseNetwork.user[1] AccessInterval ETV
vector 2 DatabaseNetwork.user[2] AccessInterval ETV
vector 3 DatabaseNetwork.user[3] AccessInterval ETV
vector 4 DatabaseNetwork.user[4] AccessInterval ETV
vector 5 DatabaseNetwork.user[5] AccessInterval ETV
vector 6 DatabaseNetwork.user[6] AccessInterval ETV
vector 7 DatabaseNetwork.user[7] AccessInterval ETV
vector 8 DatabaseNetwork.user[8] AccessInterval ETV
vector 9 DatabaseNetwork.user[9] AccessInterval ETV
vector 10 DatabaseNetwork.user[10] AccessInterval ETV
vector 11 DatabaseNetwork.user[11] AccessInterval ETV
vector 12 DatabaseNetwork.user[12] AccessInterval ETV
vector 13 DatabaseNetwork.user[13] AccessInterval ETV
vector 14 DatabaseNetwork.user[14] AccessInterval ETV
vector 15 DatabaseNetwork.user[15] AccessInterval ETV
vector 16 DatabaseNetwork.user[16] AccessInterval ETV
vector 17 DatabaseNetwork.user[17] AccessInterval ETV
vector 18 DatabaseNetwork.user[18] AccessInterval ETV
vector 19 DatabaseNetwork.user[19] AccessInterval ETV
vector 20 DatabaseNetwork.user[20] AccessInterval ETV
vector 21 DatabaseNetwork.user[21] AccessInterval ETV
vector 22 DatabaseNetwork.user[22] AccessInterval ETV
vector 23 DatabaseNetwork.user[23] AccessInterval ETV
vector 24 DatabaseNetwork.user[24] AccessInterval ETV
vector 25 DatabaseNetwork.user[25] AccessInterval ETV
vector 26 DatabaseNetwork.user[26] AccessInterval ETV
vector 27 DatabaseNetwork.user[27] AccessInterval ETV
vector 28 DatabaseNetwork.user[28] AccessInterval ETV
vector 29 DatabaseNetwork.user[29] AccessInterval ETV
vector 30 DatabaseNetwork.user[30] AccessInterval ETV
vector 31 DatabaseNetwork.user[31] AccessInterval ETV
vector 32 DatabaseNetwork.user[32] AccessInterval ETV
vector 33 DatabaseNetwork.user[33] AccessInterval ETV
vector 34 DatabaseNetwork.user[34] AccessInterval ETV
vector 35 DatabaseNetwork.user[35] AccessInterval ETV
vector 36 DatabaseNetwork.user[36] AccessInterval ETV
vector 37 DatabaseNetwork.user[37] AccessInterval ETV
vector 38 DatabaseNetwork.user[38] AccessInterval ETV
vector 39 DatabaseNetwork.user[39] AccessInterval ETV
vector 40 DatabaseNetwork.user[40] AccessInterval ETV
vector 41 DatabaseNetwork.user[41] AccessInterval ETV
vector 42 DatabaseNetwork.user[42] AccessInterval ETV
vector 43 DatabaseNetwork.user[43] AccessInterval ETV
vector 44 DatabaseNetwork.user[44] AccessInterval ETV
vector 45 DatabaseNetwork.user[45] AccessInterval ETV
vector 46 DatabaseNetwork.user[46] AccessInterval ETV
vector 47 DatabaseNetwork.user[47] AccessInterval ETV
vector 48 DatabaseNetwork.user[48] AccessInterval ETV
vector 49 DatabaseNetwork.user[49] AccessInterval ETV
vector 50 DatabaseNetwork.user[4] ReadAccesses ETV
vector 51 DatabaseNetwork.user[4] WaitTime ETV
vector 52 DatabaseNetwork.user[28] ReadAccesses ETV
vector 53 DatabaseNetwork.user[28] WaitTime ETV
vector 54 DatabaseNetwork.user[10] WriteAccesses ETV
vector 55 DatabaseNetwork.user[45] WriteAccesses ETV
vector 56 DatabaseNetwork.user[10] WaitTime ETV
vector 57 DatabaseNetwork.user[45] WaitTime ETV
vector 58 DatabaseNetwork.user[5] WriteAccesses ETV
vector 59 DatabaseNetwork.user[5] WaitTime ETV
vector 60 DatabaseNetwork.user[36] ReadAccesses ETV
vector 61 DatabaseNetwork.user[36] WaitTime ETV
vector 62 DatabaseNetwork.user[8] WriteAccesses ETV
vector 63 DatabaseNetwork.user[8] WaitTime ETV
vector 64 DatabaseNetwork.user[12] ReadAccesses ETV
vector 65 DatabaseNetwork.user[12] WaitTime ETV
vector 66 DatabaseNetwork.user[38] WriteAccesses ETV
vector 67 DatabaseNetwork.user[38] WaitTime ETV
vector 68 DatabaseNetwork.user[24] ReadAccesses ETV
vector 69 DatabaseNetwork.user[24] WaitTime ETV
vector 70 DatabaseNetwork.user[27] ReadAccesses ETV
vector 71 DatabaseNetwork.user[27] WaitTime ETV
vector 72 DatabaseNetwork.user[9] ReadAccesses ETV
vector 73 DatabaseNetwork.user[9] WaitTime ETV
vector 74 DatabaseNetwork.user[12] WriteAccesses ETV
vector 75 DatabaseNetwork.user[27] WriteAccesses ETV
vector 76 DatabaseNetwork.user[6] WriteAccesses ETV
vector 77 DatabaseNetwork.user[6] WaitTime ETV
vector 78 DatabaseNetwork.user[21] ReadAccesses ETV
vector 79 DatabaseNetwork.user[44] WriteAccesses ETV
vector 80 DatabaseNetwork.user[21] WaitTime ETV
vector 81 DatabaseNetwork.user[44] WaitTime ETV
vector 82 DatabaseNetwork.user[14] WriteAccesses ETV
vector 83 DatabaseNetwork.user[14] WaitTime ETV
vector 84 DatabaseNetwork.user[14] ReadAccesses ETV
vector 85 DatabaseNetwork.user[13] WriteAccesses ETV
vector 86 DatabaseNetwork.user[13] WaitTime ETV
vector 87 DatabaseNetwork.user[11] WriteAccesses ETV
vector 88 DatabaseNetwork.user[16] WriteAccesses ETV
vector 89 DatabaseNetwork.user[11] WaitTime ETV
vector 90 DatabaseNetwork.user[16] WaitTime ETV
vector 91 DatabaseNetwork.user[0] WriteAccesses ETV
vector 92 DatabaseNetwork.user[32] ReadAccesses ETV
vector 93 DatabaseNetwork.user[20] WriteAccesses ETV
vector 94 DatabaseNetwork.user[0] WaitTime ETV
vector 95 DatabaseNetwork.user[32] WaitTime ETV
vector 96 DatabaseNetwork.user[20] WaitTime ETV
vector 97 DatabaseNetwork.user[35] WriteAccesses ETV
vector 98 DatabaseNetwork.user[35] WaitTime ETV
vector 99 DatabaseNetwork.user[25] ReadAccesses ETV
vector 100 DatabaseNetwork.user[25] WaitTime ETV
vector 101 DatabaseNetwork.user[33] WriteAccesses ETV
vector 102 DatabaseNetwork.user[33] WaitTime ETV
vector 103 DatabaseNetwork.user[47] ReadAccesses ETV
vector 104 DatabaseNetwork.user[47] WaitTime ETV
vector 105 DatabaseNetwork.user[23] WriteAccesses ETV
vector 106 DatabaseNetwork.user[23] WaitTime ETV
vector 107 DatabaseNetwork.user[29] WriteAccesses ETV
vector 108 DatabaseNetwork.user[29] WaitTime ETV
vector 109 DatabaseNetwork.user[18] WriteAccesses ETV
vector 110 DatabaseNetwork.user[18] WaitTime ETV
vector 111 DatabaseNetwork.user[34] WriteAccesses ETV
vector 112 DatabaseNetwork.user[34] WaitTime ETV
vector 113 DatabaseNetwork.user[11] ReadAccesses ETV
vector 114 DatabaseNetwork.user[28] WriteAccesses ETV
vector 115 DatabaseNetwork.user[33] ReadAccesses ETV
vector 116 DatabaseNetwork.user[15] WriteAccesses ETV
vector 117 DatabaseNetwork.user[30] ReadAccesses ETV
vector 118 DatabaseNetwork.user[15] WaitTime ETV
vector 119 DatabaseNetwork.user[30] WaitTime ETV
vector 120 DatabaseNetwork.user[24] WriteAccesses ETV
vector 121 DatabaseNetwork.user[22] WriteAccesses ETV
vector 122 DatabaseNetwork.user[22] WaitTime ETV
vector 123 DatabaseNetwork.user[46] WriteAccesses ETV
vector 124 DatabaseNetwork.user[46] WaitTime ETV
vector 125 DatabaseNetwork.user[8] ReadAccesses ETV
vector 126 DatabaseNetwork.user[41] ReadAccesses ETV
vector 127 DatabaseNetwork.user[41] WaitTime ETV
vector 128 DatabaseNetwork.user[38] ReadAccesses ETV
vector 129 DatabaseNetwork.user[2] ReadAccesses ETV
vector 130 DatabaseNetwork.user[2] WaitTime ETV
vector 131 DatabaseNetwork.user[30] WriteAccesses ETV
vector 132 DatabaseNetwork.user[10] ReadAccesses ETV
vector 133 DatabaseNetwork.user[39] WriteAccesses ETV
vector 134 DatabaseNetwork.user[39] WaitTime ETV
vector 135 DatabaseNetwork.user[13] ReadAccesses ETV
vector 136 DatabaseNetwork.user[41] WriteAccesses ETV
vector 137 DatabaseNetwork.user[23] ReadAccesses ETV
vector 138 DatabaseNetwork.user[40] ReadAccesses ETV
vector 139 DatabaseNetwork.user[40] WaitTime ETV
vector 140 DatabaseNetwork.user[34] ReadAccesses ETV
vector 141 DatabaseNetwork.user[43] WriteAccesses ETV
vector 142 DatabaseNetwork.user[43] WaitTime ETV
vector 143 DatabaseNetwork.user[5] ReadAccesses ETV
vector 144 DatabaseNetwork.user[6] ReadAccesses ETV
vector 145 DatabaseNetwork.user[45] ReadAccesses ETV
vector 146 DatabaseNetwork.user[19] WriteAccesses ETV
vector 147 DatabaseNetwork.user[19] WaitTime ETV
vector 148 DatabaseNetwork.user[36] WriteAccesses ETV
vector 149 DatabaseNetwork.user[49] ReadAccesses ETV
vector 150 DatabaseNetwork.user[49] WaitTime ETV
vector 151 DatabaseNetwork.user[48] WriteAccesses ETV
vector 152 DatabaseNetwork.user[48] WaitTime ETV
vector 153 DatabaseNetwork.user[26] WriteAccesses ETV
vector 154 DatabaseNetwork.user[26] WaitTime ETV
vector 155 DatabaseNetwork.user[32] WriteAccesses ETV
vector 156 DatabaseNetwork.user[4] WriteAccesses ETV
vector 157 DatabaseNetwork.user[47] WriteAccesses ETV
vector 158 DatabaseNetwork.user[43] ReadAccesses ETV
vector 159 DatabaseNetwork.user[31] WriteAccesses ETV
vector 160 DatabaseNetwork.user[31] WaitTime ETV
vector 161 DatabaseNetwork.user[35] ReadAccesses ETV
vector 162 DatabaseNetwork.user[3] WriteAccesses ETV
vector 163 DatabaseNetwork.user[3] WaitTime ETV
vector 164 DatabaseNetwork.user[3] ReadAccesses ETV
vector 165 DatabaseNetwork.user[39] ReadAccesses ETV
vector 166 DatabaseNetwork.user[17] ReadAccesses ETV
vector 167 DatabaseNetwork.user[17] WaitTime ETV
vector 168 DatabaseNetwork.user[37] WriteAccesses ETV
vector 169 DatabaseNetwork.user[37] WaitTime ETV
vector 170 DatabaseNetwork.user[17] WriteAccesses ETV
vector 171 DatabaseNetwork.user[37] ReadAccesses ETV
vector 172 DatabaseNetwork.user[9] WriteAccesses ETV
vector 173 DatabaseNetwork.user[16] ReadAccesses ETV
vector 174 DatabaseNetwork.user[22] ReadAccesses ETV
vector 175 DatabaseNetwork.user[42] ReadAccesses ETV
vector 176 DatabaseNetwork.user[42] WaitTime ETV
vector 177 DatabaseNetwork.user[21] WriteAccesses ETV
vector 178 DatabaseNetwork.user[2] WriteAccesses ETV
vector 179 DatabaseNetwork.user[42] WriteAccesses ETV
vector 180 DatabaseNetwork.user[25] WriteAccesses ETV
vector 181 DatabaseNetwork.user[31] ReadAccesses ETV
vector 182 DatabaseNetwork.user[18] ReadAccesses ETV
vector 183 DatabaseNetwork.user[29] ReadAccesses ETV
vector 184 DatabaseNetwork.user[49] WriteAccesses ETV
vector 185 DatabaseNetwork.user[44] ReadAccesses ETV
vector 186 DatabaseNetwork.user[48] ReadAccesses ETV
vector 187 DatabaseNetwork.user[19] ReadAccesses ETV
vector 188 DatabaseNetwork.user[1] WriteAccesses ETV
vector 189 DatabaseNetwork.user[1] WaitTime ETV
vector 190 DatabaseNetwork.user[0] ReadAccesses ETV
vector 191 DatabaseNetwork.user[40] WriteAccesses ETV
vector 192 DatabaseNetwork.user[1] ReadAccesses ETV
vector 193 DatabaseNetwork.user[15] ReadAccesses ETV
vector 194 DatabaseNetwork.user[7] WriteAccesses ETV
vector 195 DatabaseNetwork.user[7] WaitTime ETV
vector 196 DatabaseNetwork.user[46] ReadAccesses ETV
vector 197 DatabaseNetwork.user[7] ReadAccesses ETV
vector 198 DatabaseNetwork.user[26] ReadAccesses ETV
vector 199 DatabaseNetwork.user[20] ReadAccesses ETV
0	11581 20516 0 100275 0 9995.889420518453 494 0.04378995071778 124.10925927791 10002.825863978 426301.70056629
1	32097 20649 0 99691 0 9939.823819806299 496 0.18089710679768 157.08335234806 10009.9763063 403360.11814637
2	52746 19714 0 100141 0 9984.90847501606 474 0.083052448873016 113.73348733972 10014.867732561 396972.13229204
3	72460 21366 0 100145 0 9985.205523030981 513 0.0012464324972632 144.30896831085 10022.245286877 426683.24267605
4	93826 20422 0 100247 0 9994.641186268246 491 0.0022877524501596 167.47208890196 10019.480448957 406365.69638962
5	114248 19586 0 99685 0 9938.707525847262 471 0.034022997617106 146.54077052811 10020.795453832 457723.91439653
6	133834 19812 0 100273 0 9995.873192755381 477 0.0046995261757967 135.82546517282 10012.382531725 408855.24046406
7	153646 20769 0 100005 0 9970.392062532145 500 0.011785498617153 161.78465010198 10023.696653227 417812.61538665
8	174415 21797 0 100161 0 9986.286674192292 524 0.0093525160356137 112.53678602414 10011.233524594 392888.87319118
9	196212 21766 0 100097 0 9980.768308846214 524 0.0096988255991887 128.63535209932 10015.110332718 369579.63912325
10	217978 20909 0 100309 0 9999.323730446408 492 0.04482307594157 136.18650777439 10024.119170986 405149.14899383
11	238887 20273 0 100105 0 9982.435950593076 477 0.032971245861659 125.72276001175 10002.460240249 443938.05891236
12	259160 22387 0 100313 0 9999.743835119049 526 0.020622417526751 155.19481473245 10046.754683067 396762.75669453
13	281547 21732 0 100117 0 9983.274064792112 510 0.016313336599013 115.80328403756 10001.436714996 398943.61514227
14	303279 20639 0 99621 0 9934.794207324936 485 0.023576925227119 118.06320098652 10042.033863774 393998.11439617
15	323918 22208 0 100245 0 9994.564531859268 521 0.0060290523345309 108.56466610464 10044.857074034 390514.03010565
16	346126 21139 0 99857 0 9956.546213502864 497 0.024240820074891 105.32614040528 10019.388374668 383587.77586862
17	367265 19529 0 100235 0 9994.361739565753 458 0.010210143293873 124.22574704271 10000.463562829 419443.5399388
18	386794 22648 0 99753 0 9946.236706467247 532 0.11850180276754 143.67149581184 10000.225373027 378164.69994144
19	409442 20258 0 100213 0 9993.303470864849 476 0.015647831421861 120.88254337397 10000.707903664 405260.1967293
20	429700 22224 0 99953 0 9967.034320685158 522 0.05614477027717 162.44347657589 10045.714816339 378751.11230663
21	451924 20927 0 100253 0 9994.746911280532 492 0.016861007831714 127.78164702001 10058.210738443 395845.18870571
22	472851 21817 0 99999 0 9970.169406943854 512 0.085745785495543 124.81504572751 10014.617394766 371662.09944011
23	494668 21321 0 99845 0 9954.824043988883 501 0.0047694757447799 143.99417922588 10004.603051153 418698.879766
24	515989 22204 0 100085 0 9979.830184232742 521 0.027238299938806 109.39955039684 10010.962847951 397874.68679757
25	538193 21837 0 99725 0 9944.957293673336 512 0.031380891463851 103.75390831685 10015.602502049 372286.60044049
26	560030 20893 0 100301 0 9999.124400903867 490 0.067299033941683 118.62025215688 10006.915806997 390233.34547789
27	580923 22004 0 100285 0 9996.909133528133 517 0.032509817053472 107.82447639984 10001.206732123 372722.91197825
28	602927 21882 0 100293 0 9997.13987354272 514 0.10682187017083 119.75574055452 10065.589383757 391232.99088153
29	624809 22001 0 100269 0 9995.638212903035 517 0.007911226571599 140.83103141144 10012.829055566 399106.90889412
30	646810 22480 0 100259 0 9995.045420130881 528 0.018268055795834 130.45124485531 10015.998740168 399551.12866962
31	669290 21166 0 100185 0 9989.608798505992 497 0.00656944082575 113.70834726851 10009.15950182 390815.40790573
32	690456 19891 0 100177 0 9987.919326690586 468 0.021926290959273 134.39802084088 10009.092957421 422226.86738569
33	710347 20049 0 100221 0 9993.483041563121 471 0.062553937769581 126.03142106458 10032.129160399 429455.75560686
34	730396 21094 0 100257 0 9995.036960345082 497 0.037590327724863 119.69087402837 10006.974817524 398628.17613503
35	751490 21410 0 99899 0 9961.43933088648 503 1.3536778203144e-05 158.79957088961 10025.409265019 397557.33790508
36	772900 22154 0 100033 0 9973.476598957008 521 0.09810892104204 122.40181629946 10015.596924114 379984.49315511
37	795054 21903 0 100147 0 9985.249228058863 514 0.16499758100554 105.18744290357 10005.726374796 371114.86544636
38	816957 20827 0 100035 0 9973.502929339065 489 0.10531727633488 114.51933954131 10088.02226888 403375.23233604
39	837784 21713 0 99915 0 9962.35285767613 510 0.033163387790777 133.87975209946 10035.429313956 394265.19780597
40	859497 21929 0 100219 0 9993.432866301964 515 0.025431191162894 131.25349800398 10001.409431893 383244.76731735
41	881426 21030 0 100209 0 9991.745734511542 494 0.20378258982111 129.14549231516 10011.813027166 393966.537879
42	902456 22081 0 100057 0 9976.411656735908 518 0.067563352854887 123.23558193861 10030.380039833 388169.69984507
43	924537 20952 0 100237 0 9994.364353004196 492 0.17895383031528 131.53743934764 10001.992883771 421014.66273711
44	945489 22837 0 99973 0 9967.837353299864 536 0.0091809521365116 96.212713894082 10019.302679523 362428.92943928
45	968326 21855 0 100265 0 9995.47816126231 514 0.077336942381213 147.93350231408 10043.586602968 390865.01527772
46	990181 21825 0 99739 0 9946.062900600258 513 0.01233056702785 122.16994690786 10023.19417176 386878.54549077
47	1012006 22174 0 99949 0 9966.121814515265 521 0.0098736877915384 135.0801409427 10003.297740974 369528.58934935
48	1034180 21025 0 100217 0 9993.417662078176 494 0.018819500034071 145.57086919751 10002.963776967 395737.26564854
49	1055205 21239 0 99797 0 9949.763690353548 498 0.051942021139155 143.88626185016 10047.749773825 431447.71240221
50	1076444 3957 1 98729 0.00228775245 9844.088241695413 138 1 1 138 138
51	1080401 21590 4 100252 0.10228775245 9994.741186268246 490 0.099999999998545 0.19490235237799 49.570340186926 5.0568055410245
52	1101991 4235 5 99963 0.555392552337 9967.731071094686 148 1 1 148 148
53	1106226 22557 8 100296 0.655392552337 9997.23987354272 513 0.099999999998545 0.18712344822325 51.888133435571 5.2835922484108
54	1128783 9479 13 100303 1.937677450053 9999.183259719414 331 1 1 331 331
55	1138262 10133 15 100265 1.947864782496 9995.47816126231 354 1 1 354 354
56	1148395 21564 18 100312 2.037677450053 9999.423730446408 491 0.099999999998545 0.19903605659783 49.734802898742 5.0875247943117
57	1169959 22539 20 100268 2.047864782496 9995.57816126231 513 0.099999999998545 0.2015970032453 51.942134131278 5.3154117954168
58	1192498 9371 21 99685 2.742171611863 9938.707525847262 327 1 1 327 327
59	1201869 20663 24 99688 2.842171611863 9938.807525847262 470 0.099999999998545 0.18220271285372 47.332401825969 4.7870588717742
60	1222532 3982 25 99643 3.025458353437 9935.991839259542 139 1 1 139 139
61	1226514 22835 28 100038 3.125458353437 9973.576598957008 520 0.099999999998545 0.19707282939817 52.786279276845 5.412691914932
62	1249349 9680 29 100161 3.174191944526 9986.286674192292 337 1 1 337 337
63	1259029 23056 32 100164 3.274191944526 9986.386674192292 523 0.099999999998545 0.19627144402102 52.763327375163 5.3495409225534
64	1282085 4884 37 100137 4.122292679277 9984.684021759473 170 1 1 170 170
65	1286969 23105 40 100316 4.222292679277 9999.843835119049 525 0.099999999998545 0.22970628849998 52.924777675414 5.3695289806658
66	1310074 9554 41 100035 4.415464337692 9973.502929339065 333 1 1 333 333
67	1319628 21469 44 100040 4.515464337692 9973.602929339065 488 0.099999999998545 0.18103195690674 49.118042077971 4.9583576224405
68	1341097 4759 45 99763 4.574488131862 9946.839538238055 166 1 1 166 166
69	1345856 22883 48 100090 4.674488131862 9979.930184232742 520 0.099999999998545 0.18875717000299 52.434195385024 5.3117000337259
70	1368739 4527 49 99969 5.216316998776 9967.777337899904 158 1 1 158 158
71	1373266 22694 52 100290 5.316316998776 9997.009133528133 516 0.099999999998545 0.18203590277585 52.125291595781 5.3036563478093
72	1395960 4081 53 99697 5.386079153525 9940.076146508712 143 1 1 143 143
73	1400041 23046 56 100100 5.486079153525 9980.868308846214 523 0.099999999998545 0.18849685531495 52.897878383507 5.3910627907258
74	1423087 10171 57 100313 5.646185540449 9999.743835119049 355 1 1 355 355
75	1433258 10266 65 100285 6.962865653232 9996.909133528133 358 1 1 358 358
76	1443524 9624 71 100273 7.200254957118 9995.873192755381 336 1 1 336 336
77	1453148 20945 76 100278 7.300254957118 9995.973192755381 476 0.099999999998545 0.19432410738409 48.283621568147 4.9461685357163
78	1474093 4211 77 99881 7.516383853158 9958.821646654554 147 1 1 147 147
79	1478304 10190 79 99973 7.520772448292 9967.837353299864 355 1 1 355 355
80	1488494 21637 82 100256 7.616383853158 9994.846911280532 491 0.099999999998545 0.19134164577395 49.788468918347 5.0908343610885
81	1510131 23573 84 99980 7.620772448292 9967.937353299864 535 0.099999999998545 0.19329422238388 53.916804560783 5.4615746328686
82	1533704 9670 85 99621 8.479529576145 9934.794207324936 337 1 1 337 337
83	1543374 21297 88 99624 8.579529576145 9934.894207324936 484 0.099999999998545 0.19908174930015 48.843202536511 4.9605839189664
84	1564671 4203 93 99449 9.084618477075 9919.271051498044 147 1 1 147 147
85	1568874 10068 97 98977 9.81754315573 9875.78827064735 351 1 1 351 351
86	1578942 22434 100 100120 9.91754315573 9983.374064792112 509 0.099999999998545 0.19440248895989 51.172694364864 5.1632958902086
87	1601376 9715 101 99905 10.102860213487 9961.910432276208 340 1 1 340 340
88	1611091 10297 103 99857 10.109050649433 9956.546213502864 359 1 1 359 359
89	1621388 20903 106 100108 10.202860213487 9982.535950593076 476 0.099999999998545 0.1998657855961 48.218102728726 4.9311587102519
90	1642291 21822 108 99860 10.209050649433 9956.646213502864 496 0.099999999998545 0.23822348842714 50.163188801287 5.1168189836298
91	1664113 9583 113 100025 10.792116530237 9972.507204599738 335 1 1 335 335
92	1673696 3857 115 99233 10.801820995773 9898.318655251935 135 1 1 135 135
93	1677553 9960 117 99953 10.866787572517 9967.034320685158 347 1 1 347 347
94	1687513 21668 120 100280 10.892116530237 9995.989420518453 493 0.099999999998545 0.17616177240961 49.965922407316 5.0965003723156
95	1709181 20527 122 100180 10.901820995773 9988.019326690586 467 0.099999999998545 0.22026536679368 47.174222819858 4.8073063291967
96	1729708 22972 124 99956 11.001820995773 9967.134320685158 521 0.099999999998545 0.19981167270453 52.665272619345 5.3620688773377
97	1752680 10385 125 99899 11.266904626835 9961.43933088648 363 1 1 363 363
98	1763065 22050 128 99904 11.366904626835 9961.53933088648 502 0.099999999998545 0.19710697804976 50.510712044189 5.1010697195076
99	1785115 4152 129 99471 11.720069290216 9920.823371071793 145 1 1 145 145
100	1789267 23063 132 99730 11.820069290216 9945.057293673336 511 0.099999999998545 0.19914596557783 51.626269473258 5.2474246225418
101	1812330 9780 133 100157 12.220464220164 9986.180408717149 329 1 1 329 329
102	1822110 21158 136 100228 12.320464220164 9993.583041563121 470 0.099999999998545 0.18955298529227 47.664315879611 4.8817721323815
103	1843268 4957 145 99183 14.602554102703 9893.661710938698 167 1 1 167 167
104	1848225 23396 148 99952 14.702554102703 9966.221814515265 520 0.099999999998545 0.19786650168692 52.849897733766 5.4232362585155
105	1871621 10620 149 99845 14.869793813563 9954.824043988883 358 1 1 358 358
106	1882241 22477 152 99848 14.969793813563 9954.924043988883 500 0.099999999998545 0.19962823889273 50.6343705109 5.1685661475418
107	1904718 10494 153 100269 15.289165049021 9995.638212903035 354 1 1 354 354
108	1915212 23237 156 100272 15.389165049021 9995.738212903035 516 0.099999999998545 0.18209116012622 51.913602722275 5.2427515765897
109	1938449 11534 157 99709 15.479195405514 9941.782999698392 389 1 1 389 389
110	1949983 23920 162 99756 15.579195405514 9946.336706467247 531 0.099999999998545 0.19811508371276 53.711324825234 5.4746807921306
111	1973903 9896 165 100257 16.360146227598 9995.036960345082 334 1 1 334 334
112	1983799 22301 168 100262 16.460146227598 9995.136960345082 496 0.099999999998545 0.19453149943092 50.238316239306 5.13615108124
113	2006100 4030 169 100105 19.068048122426 9982.435950593076 136 1 1 136 136
114	2010130 10828 181 100293 19.758866543846 9997.13987354272 365 1 1 365 365
115	2020958 4178 189 100221 21.000189446035 9993.483041563121 141 1 1 141 141
116	2025136 10750 199 100245 22.157866916913 9994.564531859268 362 1 1 362 362
117	2035886 4580 201 100259 22.201606371005 9995.045420130881 154 1 1 154 154
118	2040466 23492 206 100250 22.257866916913 9994.664531859268 520 0.099999999998545 0.18081806571172 52.353804964736 5.2909828699621
119	2063958 23742 208 100264 22.301606371005 9995.145420130881 527 0.099999999998545 0.19807257149023 53.27376728392 5.4252025671236
120	2087700 10530 209 100085 22.367315830468 9979.830184232742 354 1 1 354 354
121	2098230 10359 213 99999 23.117594212154 9970.169406943854 349 1 1 349 349
122	2108589 23063 218 100004 23.217594212154 9970.269406943854 511 0.099999999998545 0.19828187733401 51.394956592565 5.1918406920949
123	2131652 10907 221 99739 23.574070050879 9946.062900600258 368 1 1 368 368
124	2142559 23067 224 99748 23.674070050879 9946.162900600258 512 0.099999999998545 0.19827080333562 51.730697998164 5.2641330715104
125	2165626 5504 237 99893 24.787815744773 9961.26465326276 186 1 1 186 186
126	2171130 4772 249 98893 25.173544223505 9863.876318665612 161 1 1 161 161
127	2175902 22213 252 100212 25.273544223505 9991.845734511542 493 0.099999999998545 0.2672843630653 49.952642049634 5.1209186333784
128	2198115 4594 257 98085 25.472956615852 9778.964152456965 155 1 1 155 155
129	2202709 4099 259 100141 25.482504763199 9984.90847501606 138 1 1 138 138
130	2206808 21336 264 100144 25.582504763199 9985.00847501606 473 0.099999999998545 0.17659108080488 47.583424788745 4.8016772296245
131	2228144 11047 265 100205 27.523215309279 9991.56701292325 373 1 1 373 373
132	2239191 4729 281 100309 28.919123277922 9999.323730446408 160 1 1 160 160
133	2243920 10618 291 99819 30.136654979855 9951.6994818327 358 1 1 358 358
134	2254538 22926 296 99920 30.236654979855 9962.45285767613 509 0.099999999998545 0.19648560873338 51.586356596044 5.2657599249281
135	2277464 4698 305 100117 31.701630420246 9983.274064792112 158 1 1 158 158
136	2282162 9852 313 100209 32.1465309861 9991.745734511542 332 1 1 332 332
137	2292014 4201 315 99593 32.154859868761 9931.414338558284 142 1 1 142 142
138	2296215 4322 321 98921 32.263353825185 9866.80120501763 146 1 1 146 146
139	2300537 23175 326 100226 32.363353825185 9993.532866301964 514 0.099999999998545 0.19873228493725 51.8913665071 5.2703913305865
140	2323712 4781 327 99887 32.389273174517 9959.067160033207 162 1 1 162 162
141	2328493 9889 331 100237 32.466427183572 9994.364353004196 333 1 1 333 333
142	2338382 22147 336 100244 32.566427183572 9994.464353004196 491 0.099999999998545 0.19960051718999 49.474891940654 5.0145444405768
143	2360529 4238 339 99533 33.328334785619 9926.204675219065 143 1 1 143 143
144	2364767 4157 373 99369 35.419509206472 9910.86342976432 140 1 1 140 140
145	2368924 4715 381 99349 35.537816680393 9909.376795593521 159 1 1 159 159
146	2373639 9728 401 100213 37.456473337418 9993.303470864849 328 1 1 328 328
147	2383367 21414 404 100216 37.556473337418 9993.403470864849 475 0.099999999998545 0.1960661185667 47.768758837792 4.8250483755305
148	2404781 11288 405 100033 38.290999169238 9973.476598957008 381 1 1 381 381
149	2416069 4039 419 98909 40.052609541518 9865.04950673998 136 1 1 136 136
150	2420108 22483 424 99802 40.152609541518 9949.863690353548 497 0.099999999998545 0.18758531653748 50.198912947877 5.1060270228789
151	2442591 10494 433 100217 41.812338459188 9993.417662078176 354 1 1 354 354
152	2453085 22225 436 100224 41.912338459188 9993.517662078176 493 0.099999999998545 0.168049800669 49.748253264655 5.0416363540356
153	2475310 9833 437 99833 42.093945925536 9953.488892376298 331 1 1 331 331
154	2485143 22064 440 100306 42.193945925536 9999.224400903867 489 0.099999999998545 0.18787189035174 49.25057299953 4.9841607829484
155	2507207 9826 469 100177 44.015587117071 9987.919326690586 332 1 1 332 332
156	2517033 10454 473 100247 44.151810472891 9994.641186268246 352 1 1 352 352
157	2527487 10463 475 99949 44.235689562709 9966.121814515265 353 1 1 353 353
158	2537950 4688 517 99433 47.2601630083 9917.861997943458 158 1 1 158 158
159	2542638 10482 529 100185 49.059329604428 9989.608798505992 353 1 1 353 353
160	2553120 22343 532 100188 49.159329604428 9989.708798505992 496 0.099999999998545 0.19006278164215 50.155140070625 5.1058601878858
161	2575463 4118 557 99253 52.173899654116 9900.53505517141 139 1 1 139 139
162	2579581 11101 581 100145 53.929556758937 9985.205523030981 373 1 1 373 373
163	2590682 23131 584 100150 54.029556758937 9985.305523030981 512 0.099999999998545 0.18089110595338 51.636520425947 5.2295823796719
164	2613813 4127 585 96905 54.108609468709 9672.32997114752 139 1 1 139 139
165	2617940 4488 593 99915 54.325746980927 9962.35285767613 151 1 1 151 151
166	2622428 3663 601 99717 54.833920313446 9943.105095529321 123 1 1 123 123
167	2626091 20630 604 100242 54.933920313446 9994.461739565753 457 0.099999999998545 0.18981006036665 46.01618185663 4.6553507744545
168	2646721 10550 605 100147 55.97957222567 9985.249228058863 355 1 1 355 355
169	2657271 23139 608 100152 56.07957222567 9985.349228058863 513 0.099999999998545 0.19353010286795 51.957378299924 5.3040701452933
170	2680410 9924 649 100235 59.302016903795 9994.361739565753 334 1 1 334 334
171	2690334 4694 651 98781 59.376766791765 9852.366494166179 158 1 1 158 158
172	2695028 11284 705 100097 66.734111873361 9980.768308846214 380 1 1 380 380
173	2706312 4059 725 99357 68.320760465201 9909.676107835738 137 1 1 137 137
174	2710371 4822 729 99909 68.897281571616 9962.05722812232 162 1 1 162 162
175	2715193 4923 733 100057 69.004541745721 9976.411656735908 166 1 1 166 166
176	2720116 23345 738 100060 69.104541745721 9976.511656735908 517 0.099999999998545 0.18988252441341 52.264572481496 5.3180620752278
177	2743461 10205 797 100253 79.897907663615 9994.746911280532 344 1 1 344 344
178	2753666 9937 809 100109 81.325830466217 9982.887750160731 335 1 1 335 335
179	2763603 10426 821 100041 82.43254127402 9973.964260192495 351 1 1 351 351