file 4420601 1767629714                                         
version 3
run Lognormal-41-20260105-17:15:14-28123
attr configname Lognormal
attr datetime 20260105-17:15:14
attr datetimef 20260105-171514
attr experiment Lognormal
attr inifile omnetpp.ini
attr iterationvars "$N=75, $p=0.8"
attr iterationvarsd N=75/p=0.8
attr iterationvarsf N=75,p=0.8-
attr measurement "$N=75, $p=0.8"
attr network progetto.DatabaseNetwork
attr processid 28123
attr repetition 1
attr replication #1
attr resultdir results
attr runnumber 41
attr seedset 1
itervar N 75
itervar p 0.8
config description "Lognormal distribution (hotspots) - varia N e p"
config *.user[*].tableDistribution "\"lognormal\""
config *.user[*].lognormalM 1.5
config *.user[*].lognormalS 1.0
config *.numUsers 75
config *.user[*].readProbability 0.8
config network progetto.DatabaseNetwork
config sim-time-limit 10000s
config cpu-time-limit 3600s
config repeat 5
config seed-set 1
config output-vector-file "results/Lognormal-$N=75, $p=0.8-1.vec"
config output-scalar-file "results/Lognormal-$N=75, $p=0.8-1.sca"
config result-dir results
config **.vector-recording true
config **.scalar-recording true
config *.numTables 20
config *.user[*].lambda 0.05
config *.user[*].serviceTime 0.1s

vector 0 DatabaseNetwork.user[0] AccessInterval ETV
vector 1 DatabaseNetwork.user[1] AccessInterval ETV
vector 2 DatabaseNetwork.user[2] AccessInterval ETV
vector 3 DatabaseNetwork.user[3] AccessInterval ETV
vector 4 DatabaseNetwork.user[4] AccessInterval ETV
vector 5 DatabaseNetwork.user[5] AccessInterval ETV
vector 6 DatabaseNetwork.user[6] AccessInterval ETV
vector 7 DatabaseNetwork.user[7] AccessInterval ETV
vector 8 DatabaseNetwork.user[8] AccessInterval ETV
vector 9 DatabaseNetwork.user[9] AccessInterval ETV
vector 10 DatabaseNetwork.user[10] AccessInterval ETV
vector 11 DatabaseNetwork.user[11] AccessInterval ETV
vector 12 DatabaseNetwork.user[12] AccessInterval ETV
vector 13 DatabaseNetwork.user[13] AccessInterval ETV
vector 14 DatabaseNetwork.user[14] AccessInterval ETV
vector 15 DatabaseNetwork.user[15] AccessInterval ETV
vector 16 DatabaseNetwork.user[16] AccessInterval ETV
vector 17 DatabaseNetwork.user[17] AccessInterval ETV
vector 18 DatabaseNetwork.user[18] AccessInterval ETV
vector 19 DatabaseNetwork.user[19] AccessInterval ETV
vector 20 DatabaseNetwork.user[20] AccessInterval ETV
vector 21 DatabaseNetwork.user[21] AccessInterval ETV
vector 22 DatabaseNetwork.user[22] AccessInterval ETV
vector 23 DatabaseNetwork.user[23] AccessInterval ETV
vector 24 DatabaseNetwork.user[24] AccessInterval ETV
vector 25 DatabaseNetwork.user[25] AccessInterval ETV
vector 26 DatabaseNetwork.user[26] AccessInterval ETV
vector 27 DatabaseNetwork.user[27] AccessInterval ETV
vector 28 DatabaseNetwork.user[28] AccessInterval ETV
vector 29 DatabaseNetwork.user[29] AccessInterval ETV
vector 30 DatabaseNetwork.user[30] AccessInterval ETV
vector 31 DatabaseNetwork.user[31] AccessInterval ETV
vector 32 DatabaseNetwork.user[32] AccessInterval ETV
vector 33 DatabaseNetwork.user[33] AccessInterval ETV
vector 34 DatabaseNetwork.user[34] AccessInterval ETV
vector 35 DatabaseNetwork.user[35] AccessInterval ETV
vector 36 DatabaseNetwork.user[36] AccessInterval ETV
vector 37 DatabaseNetwork.user[37] AccessInterval ETV
vector 38 DatabaseNetwork.user[38] AccessInterval ETV
vector 39 DatabaseNetwork.user[39] AccessInterval ETV
vector 40 DatabaseNetwork.user[40] AccessInterval ETV
vector 41 DatabaseNetwork.user[41] AccessInterval ETV
vector 42 DatabaseNetwork.user[42] AccessInterval ETV
vector 43 DatabaseNetwork.user[43] AccessInterval ETV
vector 44 DatabaseNetwork.user[44] AccessInterval ETV
vector 45 DatabaseNetwork.user[45] AccessInterval ETV
vector 46 DatabaseNetwork.user[46] AccessInterval ETV
vector 47 DatabaseNetwork.user[47] AccessInterval ETV
vector 48 DatabaseNetwork.user[48] AccessInterval ETV
vector 49 DatabaseNetwork.user[49] AccessInterval ETV
vector 50 DatabaseNetwork.user[50] AccessInterval ETV
vector 51 DatabaseNetwork.user[51] AccessInterval ETV
vector 52 DatabaseNetwork.user[52] AccessInterval ETV
vector 53 DatabaseNetwork.user[53] AccessInterval ETV
vector 54 DatabaseNetwork.user[54] AccessInterval ETV
vector 55 DatabaseNetwork.user[55] AccessInterval ETV
vector 56 DatabaseNetwork.user[56] AccessInterval ETV
vector 57 DatabaseNetwork.user[57] AccessInterval ETV
vector 58 DatabaseNetwork.user[58] AccessInterval ETV
vector 59 DatabaseNetwork.user[59] AccessInterval ETV
vector 60 DatabaseNetwork.user[60] AccessInterval ETV
vector 61 DatabaseNetwork.user[61] AccessInterval ETV
vector 62 DatabaseNetwork.user[62] AccessInterval ETV
vector 63 DatabaseNetwork.user[63] AccessInterval ETV
vector 64 DatabaseNetwork.user[64] AccessInterval ETV
vector 65 DatabaseNetwork.user[65] AccessInterval ETV
vector 66 DatabaseNetwork.user[66] AccessInterval ETV
vector 67 DatabaseNetwork.user[67] AccessInterval ETV
vector 68 DatabaseNetwork.user[68] AccessInterval ETV
vector 69 DatabaseNetwork.user[69] AccessInterval ETV
vector 70 DatabaseNetwork.user[70] AccessInterval ETV
vector 71 DatabaseNetwork.user[71] AccessInterval ETV
vector 72 DatabaseNetwork.user[72] AccessInterval ETV
vector 73 DatabaseNetwork.user[73] AccessInterval ETV
vector 74 DatabaseNetwork.user[74] AccessInterval ETV
vector 75 DatabaseNetwork.user[4] ReadAccesses ETV
vector 76 DatabaseNetwork.user[4] WaitTime ETV
vector 77 DatabaseNetwork.user[28] ReadAccesses ETV
vector 78 DatabaseNetwork.user[28] WaitTime ETV
vector 79 DatabaseNetwork.user[54] ReadAccesses ETV
vector 80 DatabaseNetwork.user[54] WaitTime ETV
vector 81 DatabaseNetwork.user[57] ReadAccesses ETV
vector 82 DatabaseNetwork.user[57] WaitTime ETV
vector 83 DatabaseNetwork.user[52] ReadAccesses ETV
vector 84 DatabaseNetwork.user[52] WaitTime ETV
vector 85 DatabaseNetwork.user[10] ReadAccesses ETV
vector 86 DatabaseNetwork.user[45] ReadAccesses ETV
vector 87 DatabaseNetwork.user[10] WaitTime ETV
vector 88 DatabaseNetwork.user[45] WaitTime ETV
vector 89 DatabaseNetwork.user[60] WriteAccesses ETV
vector 90 DatabaseNetwork.user[60] WaitTime ETV
vector 91 DatabaseNetwork.user[5] ReadAccesses ETV
vector 92 DatabaseNetwork.user[5] WaitTime ETV
vector 93 DatabaseNetwork.user[36] ReadAccesses ETV
vector 94 DatabaseNetwork.user[71] ReadAccesses ETV
vector 95 DatabaseNetwork.user[36] WaitTime ETV
vector 96 DatabaseNetwork.user[71] WaitTime ETV
vector 97 DatabaseNetwork.user[8] ReadAccesses ETV
vector 98 DatabaseNetwork.user[8] WaitTime ETV
vector 99 DatabaseNetwork.user[56] ReadAccesses ETV
vector 100 DatabaseNetwork.user[56] WaitTime ETV
vector 101 DatabaseNetwork.user[12] ReadAccesses ETV
vector 102 DatabaseNetwork.user[12] WaitTime ETV
vector 103 DatabaseNetwork.user[67] ReadAccesses ETV
vector 104 DatabaseNetwork.user[38] ReadAccesses ETV
vector 105 DatabaseNetwork.user[67] WaitTime ETV
vector 106 DatabaseNetwork.user[38] WaitTime ETV
vector 107 DatabaseNetwork.user[24] WriteAccesses ETV
vector 108 DatabaseNetwork.user[24] WaitTime ETV
vector 109 DatabaseNetwork.user[27] ReadAccesses ETV
vector 110 DatabaseNetwork.user[27] WaitTime ETV
vector 111 DatabaseNetwork.user[9] ReadAccesses ETV
vector 112 DatabaseNetwork.user[9] WaitTime ETV
vector 113 DatabaseNetwork.user[55] ReadAccesses ETV
vector 114 DatabaseNetwork.user[55] WaitTime ETV
vector 115 DatabaseNetwork.user[69] ReadAccesses ETV
vector 116 DatabaseNetwork.user[69] WaitTime ETV
vector 117 DatabaseNetwork.user[6] WriteAccesses ETV
vector 118 DatabaseNetwork.user[6] WaitTime ETV
vector 119 DatabaseNetwork.user[21] ReadAccesses ETV
vector 120 DatabaseNetwork.user[44] ReadAccesses ETV
vector 121 DatabaseNetwork.user[70] ReadAccesses ETV
vector 122 DatabaseNetwork.user[21] WaitTime ETV
vector 123 DatabaseNetwork.user[44] WaitTime ETV
vector 124 DatabaseNetwork.user[70] WaitTime ETV
vector 125 DatabaseNetwork.user[60] ReadAccesses ETV
vector 126 DatabaseNetwork.user[14] ReadAccesses ETV
vector 127 DatabaseNetwork.user[14] WaitTime ETV
vector 128 DatabaseNetwork.user[13] ReadAccesses ETV
vector 129 DatabaseNetwork.user[13] WaitTime ETV
vector 130 DatabaseNetwork.user[11] ReadAccesses ETV
vector 131 DatabaseNetwork.user[16] ReadAccesses ETV
vector 132 DatabaseNetwork.user[11] WaitTime ETV
vector 133 DatabaseNetwork.user[16] WaitTime ETV
vector 134 DatabaseNetwork.user[65] ReadAccesses ETV
vector 135 DatabaseNetwork.user[65] WaitTime ETV
vector 136 DatabaseNetwork.user[0] ReadAccesses ETV
vector 137 DatabaseNetwork.user[32] ReadAccesses ETV
vector 138 DatabaseNetwork.user[20] ReadAccesses ETV
vector 139 DatabaseNetwork.user[0] WaitTime ETV
vector 140 DatabaseNetwork.user[32] WaitTime ETV
vector 141 DatabaseNetwork.user[62] ReadAccesses ETV
vector 142 DatabaseNetwork.user[20] WaitTime ETV
vector 143 DatabaseNetwork.user[62] WaitTime ETV
vector 144 DatabaseNetwork.user[35] ReadAccesses ETV
vector 145 DatabaseNetwork.user[35] WaitTime ETV
vector 146 DatabaseNetwork.user[25] ReadAccesses ETV
vector 147 DatabaseNetwork.user[25] WaitTime ETV
vector 148 DatabaseNetwork.user[33] WriteAccesses ETV
vector 149 DatabaseNetwork.user[33] WaitTime ETV
vector 150 DatabaseNetwork.user[47] WriteAccesses ETV
vector 151 DatabaseNetwork.user[47] WaitTime ETV
vector 152 DatabaseNetwork.user[23] ReadAccesses ETV
vector 153 DatabaseNetwork.user[23] WaitTime ETV
vector 154 DatabaseNetwork.user[66] ReadAccesses ETV
vector 155 DatabaseNetwork.user[29] ReadAccesses ETV
vector 156 DatabaseNetwork.user[66] WaitTime ETV
vector 157 DatabaseNetwork.user[29] WaitTime ETV
vector 158 DatabaseNetwork.user[18] WriteAccesses ETV
vector 159 DatabaseNetwork.user[18] WaitTime ETV
vector 160 DatabaseNetwork.user[34] ReadAccesses ETV
vector 161 DatabaseNetwork.user[34] WaitTime ETV
vector 162 DatabaseNetwork.user[61] ReadAccesses ETV
vector 163 DatabaseNetwork.user[61] WaitTime ETV
vector 164 DatabaseNetwork.user[67] WriteAccesses ETV
vector 165 DatabaseNetwork.user[15] WriteAccesses ETV
vector 166 DatabaseNetwork.user[30] ReadAccesses ETV
vector 167 DatabaseNetwork.user[59] ReadAccesses ETV
vector 168 DatabaseNetwork.user[15] WaitTime ETV
vector 169 DatabaseNetwork.user[63] ReadAccesses ETV
vector 170 DatabaseNetwork.user[30] WaitTime ETV
vector 171 DatabaseNetwork.user[59] WaitTime ETV
vector 172 DatabaseNetwork.user[63] WaitTime ETV
vector 173 DatabaseNetwork.user[22] ReadAccesses ETV
vector 174 DatabaseNetwork.user[72] ReadAccesses ETV
vector 175 DatabaseNetwork.user[22] WaitTime ETV
vector 176 DatabaseNetwork.user[72] WaitTime ETV
vector 177 DatabaseNetwork.user[14] WriteAccesses ETV
vector 178 DatabaseNetwork.user[68] ReadAccesses ETV
vector 179 DatabaseNetwork.user[46] ReadAccesses ETV
vector 180 DatabaseNetwork.user[27] WriteAccesses ETV
vector 181 DatabaseNetwork.user[68] WaitTime ETV
vector 182 DatabaseNetwork.user[46] WaitTime ETV
vector 183 DatabaseNetwork.user[41] ReadAccesses ETV
vector 184 DatabaseNetwork.user[41] WaitTime ETV
vector 185 DatabaseNetwork.user[41] WriteAccesses ETV
vector 186 DatabaseNetwork.user[2] ReadAccesses ETV
vector 187 DatabaseNetwork.user[2] WaitTime ETV
vector 188 DatabaseNetwork.user[36] WriteAccesses ETV
vector 189 DatabaseNetwork.user[45] WriteAccesses ETV
vector 190 DatabaseNetwork.user[10] WriteAccesses ETV
vector 191 DatabaseNetwork.user[39] WriteAccesses ETV
vector 192 DatabaseNetwork.user[39] WaitTime ETV
vector 193 DatabaseNetwork.user[73] ReadAccesses ETV
vector 194 DatabaseNetwork.user[73] WaitTime ETV
vector 195 DatabaseNetwork.user[40] ReadAccesses ETV
vector 196 DatabaseNetwork.user[40] WaitTime ETV
vector 197 DatabaseNetwork.user[43] ReadAccesses ETV
vector 198 DatabaseNetwork.user[43] WaitTime ETV
vector 199 DatabaseNetwork.user[18] ReadAccesses ETV
vector 200 DatabaseNetwork.user[51] ReadAccesses ETV
vector 201 DatabaseNetwork.user[53] WriteAccesses ETV
vector 202 DatabaseNetwork.user[51] WaitTime ETV
vector 203 DatabaseNetwork.user[53] WaitTime ETV
vector 204 DatabaseNetwork.user[74] ReadAccesses ETV
vector 205 DatabaseNetwork.user[74] WaitTime ETV
vector 206 DatabaseNetwork.user[19] WriteAccesses ETV
vector 207 DatabaseNetwork.user[24] ReadAccesses ETV
vector 208 DatabaseNetwork.user[19] WaitTime ETV
vector 209 DatabaseNetwork.user[23] WriteAccesses ETV
vector 210 DatabaseNetwork.user[49] ReadAccesses ETV
vector 211 DatabaseNetwork.user[49] WaitTime ETV
vector 212 DatabaseNetwork.user[48] ReadAccesses ETV
vector 213 DatabaseNetwork.user[48] WaitTime ETV
vector 214 DatabaseNetwork.user[26] ReadAccesses ETV
vector 215 DatabaseNetwork.user[58] ReadAccesses ETV
vector 216 DatabaseNetwork.user[26] WaitTime ETV
vector 217 DatabaseNetwork.user[58] WaitTime ETV
vector 218 DatabaseNetwork.user[8] WriteAccesses ETV
vector 219 DatabaseNetwork.user[50] ReadAccesses ETV
vector 220 DatabaseNetwork.user[50] WaitTime ETV
vector 221 DatabaseNetwork.user[0] WriteAccesses ETV
vector 222 DatabaseNetwork.user[5] WriteAccesses ETV
vector 223 DatabaseNetwork.user[9] WriteAccesses ETV
vector 224 DatabaseNetwork.user[31] WriteAccesses ETV
vector 225 DatabaseNetwork.user[31] WaitTime ETV
vector 226 DatabaseNetwork.user[32] WriteAccesses ETV
vector 227 DatabaseNetwork.user[33] ReadAccesses ETV
vector 228 DatabaseNetwork.user[40] WriteAccesses ETV
vector 229 DatabaseNetwork.user[3] ReadAccesses ETV
vector 230 DatabaseNetwork.user[3] WaitTime ETV
vector 231 DatabaseNetwork.user[34] WriteAccesses ETV
vector 232 DatabaseNetwork.user[17] ReadAccesses ETV
vector 233 DatabaseNetwork.user[17] WaitTime ETV
vector 234 DatabaseNetwork.user[37] ReadAccesses ETV
vector 235 DatabaseNetwork.user[37] WaitTime ETV
vector 236 DatabaseNetwork.user[28] WriteAccesses ETV
vector 237 DatabaseNetwork.user[68] WriteAccesses ETV
vector 238 DatabaseNetwork.user[61] WriteAccesses ETV
vector 239 DatabaseNetwork.user[71] WriteAccesses ETV
vector 240 DatabaseNetwork.user[64] ReadAccesses ETV
vector 241 DatabaseNetwork.user[64] WaitTime ETV
vector 242 DatabaseNetwork.user[74] WriteAccesses ETV
vector 243 DatabaseNetwork.user[47] ReadAccesses ETV
vector 244 DatabaseNetwork.user[31] ReadAccesses ETV
vector 245 DatabaseNetwork.user[73] WriteAccesses ETV
vector 246 DatabaseNetwork.user[21] WriteAccesses ETV
vector 247 DatabaseNetwork.user[42] ReadAccesses ETV
vector 248 DatabaseNetwork.user[42] WaitTime ETV
vector 249 DatabaseNetwork.user[19] ReadAccesses ETV
vector 250 DatabaseNetwork.user[15] ReadAccesses ETV
vector 251 DatabaseNetwork.user[6] ReadAccesses ETV
vector 252 DatabaseNetwork.user[13] WriteAccesses ETV
vector 253 DatabaseNetwork.user[53] ReadAccesses ETV
vector 254 DatabaseNetwork.user[72] WriteAccesses ETV
vector 255 DatabaseNetwork.user[66] WriteAccesses ETV
vector 256 DatabaseNetwork.user[17] WriteAccesses ETV
vector 257 DatabaseNetwork.user[42] WriteAccesses ETV
vector 258 DatabaseNetwork.user[64] WriteAccesses ETV
vector 259 DatabaseNetwork.user[25] WriteAccesses ETV
vector 260 DatabaseNetwork.user[46] WriteAccesses ETV
vector 261 DatabaseNetwork.user[69] WriteAccesses ETV
vector 262 DatabaseNetwork.user[39] ReadAccesses ETV
vector 263 DatabaseNetwork.user[3] WriteAccesses ETV
vector 264 DatabaseNetwork.user[57] WriteAccesses ETV
vector 265 DatabaseNetwork.user[63] WriteAccesses ETV
vector 266 DatabaseNetwork.user[1] WriteAccesses ETV
vector 267 DatabaseNetwork.user[1] WaitTime ETV
vector 268 DatabaseNetwork.user[2] WriteAccesses ETV
vector 269 DatabaseNetwork.user[35] WriteAccesses ETV
vector 270 DatabaseNetwork.user[59] WriteAccesses ETV
vector 271 DatabaseNetwork.user[70] WriteAccesses ETV
vector 272 DatabaseNetwork.user[7] ReadAccesses ETV
vector 273 DatabaseNetwork.user[7] WaitTime ETV
vector 274 DatabaseNetwork.user[49] WriteAccesses ETV
vector 275 DatabaseNetwork.user[37] WriteAccesses ETV
vector 276 DatabaseNetwork.user[7] WriteAccesses ETV
vector 277 DatabaseNetwork.user[44] WriteAccesses ETV
vector 278 DatabaseNetwork.user[51] WriteAccesses ETV
vector 279 DatabaseNetwork.user[43] WriteAccesses ETV
vector 280 DatabaseNetwork.user[38] WriteAccesses ETV
vector 281 DatabaseNetwork.user[52] WriteAccesses ETV
vector 282 DatabaseNetwork.user[65] WriteAccesses ETV
vector 283 DatabaseNetwork.user[50] WriteAccesses ETV
vector 284 DatabaseNetwork.user[1] ReadAccesses ETV
vector 285 DatabaseNetwork.user[55] WriteAccesses ETV
vector 286 DatabaseNetwork.user[26] WriteAccesses ETV
vector 287 DatabaseNetwork.user[58] WriteAccesses ETV
vector 288 DatabaseNetwork.user[11] WriteAccesses ETV
vector 289 DatabaseNetwork.user[56] WriteAccesses ETV
vector 290 DatabaseNetwork.user[48] WriteAccesses ETV
vector 291 DatabaseNetwork.user[22] WriteAccesses ETV
vector 292 DatabaseNetwork.user[54] WriteAccesses ETV
vector 293 DatabaseNetwork.user[20] WriteAccesses ETV
vector 294 DatabaseNetwork.user[30] WriteAccesses ETV
vector 295 DatabaseNetwork.user[62] WriteAccesses ETV
vector 296 DatabaseNetwork.user[12] WriteAccesses ETV
vector 297 DatabaseNetwork.user[4] WriteAccesses ETV
vector 298 DatabaseNetwork.user[29] WriteAccesses ETV
vector 299 DatabaseNetwork.user[16] WriteAccesses ETV
0	16858 20717 0 149061 0 9991.105494142979 494 0.00094259516310892 176.25530530162 10040.34774464 403434.93751266
1	37575 19834 0 149073 0 9992.321083629582 473 0.095687406269549 160.72965391105 10001.997685988 424199.3482417
2	57409 21200 0 148897 0 9976.857197108669 505 0.01868962178297 122.7267785276 10024.704191412 402466.97868948
3	78609 21491 0 149133 0 9996.640603239668 513 0.11317606694439 122.04942549189 10017.65754844 368724.60235489
4	100100 22152 0 149103 0 9994.026652765158 528 0.0022877524501596 116.94142777557 10029.346047969 365158.09762473
5	122252 19646 0 149057 0 9989.425475694083 469 0.0030297473020485 118.641825108 10012.251970728 392845.68849487
6	141898 22392 0 149001 0 9983.745874700746 534 0.12658064631371 174.09663289428 10032.752338118 383318.45267052
7	164290 21960 0 148623 0 9960.85829643042 523 0.0088291776031102 143.15974534675 10020.778305809 404349.45177829
8	186250 18890 0 149017 0 9984.702307396552 450 0.056238038481884 132.04970706021 10063.658736933 463815.10101898
9	205140 21046 0 149109 0 9994.505053486241 501 0.054720029123551 131.35671299483 10003.816405058 380132.85432629
10	226186 19443 0 149167 0 9998.056735961283 454 0.10507228730465 148.75855594282 10042.649306522 417063.20594453
11	245629 20466 0 148737 0 9967.07911996884 476 0.032421001776878 152.4856955833 10062.39942681 426629.99987078
12	266095 20043 0 149087 0 9993.263269642046 467 0.0099072040349794 156.38697191634 10033.629646903 466539.32359741
13	286138 20932 0 149117 0 9995.652980516959 487 0.0069993594098887 230.83612195286 10018.749106904 427098.77278672
14	307070 21513 0 148937 0 9980.465410855033 501 0.05392160132861 135.78410755299 10065.996830485 410298.64432014
15	328583 22770 0 149041 0 9988.059571724941 530 0.045407223131277 117.12330478537 10036.389944948 364265.51003829
16	351353 20877 0 149093 0 9993.797081708795 486 0.023864863600116 167.22012047405 10012.302299106 422467.40694999
17	372230 21277 0 148959 0 9981.944537715579 495 0.039303544831734 154.60184507341 10004.626427715 422646.10442616
18	393507 21796 0 149185 0 9999.880784915646 508 0.0049925353663908 128.26905414162 10032.744757665 382801.1268586
19	415303 19972 0 148609 0 9959.723998243254 465 0.057911588593443 194.83514268957 10013.011514691 441803.29599143
20	435275 21818 0 149173 0 9998.250670270298 509 0.0122457832241 101.6070647346 10023.333716869 365922.65789625
21	457093 22320 0 149165 0 9997.957957597358 520 0.001034507274264 166.2810747298 10009.718311955 401408.69595591
22	479413 20310 0 148741 0 9967.733456413999 473 0.0016530727520409 171.73410725108 10028.337902162 434586.8600894
23	499723 20218 0 148977 0 9982.646997420525 471 0.0069614599821848 144.16746741211 10039.897282138 415949.58015761
24	519941 21802 0 148405 0 9947.126403184181 508 0.0037903763685341 129.43799849231 10012.61874604 395001.28345837
25	541743 22443 0 148763 0 9969.356040622278 523 0.10383300758601 147.48293059643 10098.808511519 398551.57092648
26	564186 21675 0 149151 0 9997.178891505623 504 0.024683292120959 111.07002658487 10012.046762266 399055.781795
27	585861 22435 0 148945 0 9980.888959174857 522 0.014813411065417 120.66652276168 10006.043408008 371839.55966872
28	608296 18534 0 148993 0 9983.413296829701 432 0.06968834294029 167.67172459419 10002.09645344 488159.85738027
29	626830 21031 0 148879 0 9975.927803378478 490 0.0015888807977259 137.68064549522 10031.233659238 414157.15934657
30	647861 22884 0 148673 0 9963.76912744716 533 0.026255749994766 143.95717522992 10010.06483737 387000.78663837
31	670745 20026 0 148441 0 9949.709689003302 467 0.045298043688071 122.62102877026 10005.853907951 407488.11456749
32	690771 21327 0 148537 0 9955.500027542527 496 0.02172068215921 140.2937705081 10025.023317022 401100.96190076
33	712098 20327 0 149053 0 9989.115802685875 474 0.11388500723239 166.12095365188 10012.472871341 441732.65372233
34	732425 22455 0 149125 0 9995.923684094314 522 0.043359240566378 108.53835052891 10001.398250754 370046.38020051
35	754880 22143 0 149181 0 9999.133818832351 516 0.013778680126538 128.62014927706 10014.179780281 419112.16876327
36	777023 21817 0 148889 0 9976.696318728667 508 0.071850099890047 129.72558714124 10030.935398924 396697.86821497
37	798840 22228 0 149143 0 9996.939138053203 518 0.11773659719082 126.49941362914 10019.839462995 375973.65769398
38	821068 19869 0 148121 0 9926.510613774326 464 0.013486800321111 143.95043591487 10008.686485585 445392.87132931
39	840937 21501 0 148797 0 9971.116292369341 501 0.055226961121439 113.51405764357 10006.871660619 386734.01303148
40	862438 22033 0 148891 0 9976.708330686 513 0.10677563990995 121.28409582792 10025.968062974 369599.80961897
41	884471 21851 0 149113 0 9995.230157348768 509 0.016326381098322 174.58473833687 10021.607123196 394935.83941684
42	906322 21471 0 149021 0 9985.919741871502 500 0.016010887424635 179.87069583336 10059.156654134 413454.41664371
43	927793 21146 0 149033 0 9987.160727153173 493 0.03768437254062 134.40279897787 10002.243342952 404221.75760299
44	948939 21321 0 148257 0 9936.603746568839 496 0.022180687342159 151.63122362319 10045.658101542 406399.12252813
45	970260 23341 0 148829 0 9972.928312586362 544 0.0065776438167119 135.10400529867 10000.794371563 380877.19104643
46	993601 21463 0 149121 0 9995.75716536393 500 0.093379677761825 144.28658271025 10005.547414585 427967.1085155
47	1015064 22032 0 148811 0 9972.007685192084 513 0.044044359344192 114.60309003069 10035.893073496 399515.21477718
48	1037096 21888 0 148003 0 9918.72572975312 510 0.044000369390648 128.92525215641 10041.548608513 407526.32428448
49	1058984 20627 0 148677 0 9963.953703585201 480 0.045043553774284 177.84105209594 10009.962211448 437124.48648562
50	1079611 21788 0 148599 0 9958.844156231069 508 0.03622519278558 129.12149753122 10000.166812301 382036.34957332
51	1101399 20623 0 149085 0 9993.224737189732 480 0.0019391262290262 124.09907136467 10043.384381913 393725.32576081
52	1122022 22331 0 149101 0 9993.987317384781 520 0.00021575135134738 128.41200145487 10045.75506145 376624.1903147
53	1144353 19931 0 149025 0 9986.947471221608 464 0.028677415500904 150.63219787254 10007.349904983 415852.31629725
54	1164284 21561 0 148505 0 9953.159456313426 502 0.00045948724019784 109.10558557789 10006.468159413 376091.28530659
55	1185845 20679 0 149049 0 9988.964796016709 482 0.039376256369411 150.98535506178 10033.127099882 409137.76770961
56	1206524 21280 0 148857 0 9975.006071960541 496 0.087068279139786 129.55492924998 10025.459798482 411640.97254407
57	1227804 22376 0 148653 0 9962.764164097859 521 0.02023757465175 136.82276768684 10004.313728301 382929.30361486
58	1250180 21926 0 148635 0 9961.539742493905 511 0.023752948458513 106.77126447454 10011.334080824 393941.34417319
59	1272106 21953 0 149069 0 9991.505622086565 512 0.018087900069501 149.5133302433 10046.529416581 409899.59449834
60	1294059 20652 0 148841 0 9974.074058096397 482 0.012466302937021 118.06429065066 10003.680401356 403287.95901995
61	1314711 22161 0 149177 0 9998.662711714682 516 0.050674321135994 124.1681333378 10016.244711585 382730.40312775
62	1336872 21763 0 149065 0 9991.403755723639 507 0.051059866843674 136.62504347785 10002.444397647 413623.23128556
63	1358635 22166 0 148611 0 9959.811771617799 516 0.017868851759526 121.18080043381 10020.954127168 398179.29237944
64	1380801 21339 0 149157 0 9997.468916425307 496 0.022308979941477 135.42379025135 10011.72524811 390170.42260596
65	1402140 21315 0 148901 0 9977.412894375611 496 0.035920357099471 154.04314371709 10010.178281622 395599.36884024
66	1423455 21359 0 148729 0 9966.845793538092 497 0.09987200012514 133.19947210768 10006.289133402 391765.93213208
67	1444814 21962 0 148987 0 9982.896686423351 511 0.0034611826402714 108.22920503274 10036.473397877 376758.15723658
68	1466776 22004 0 148927 0 9979.521406962752 512 0.11493382899833 92.266478211246 10009.137943876 364360.61285207
69	1488780 20517 0 149129 0 9996.381944082045 478 0.045854014230734 105.68044817525 10000.779088922 385395.90106919
70	1509297 22576 0 147765 0 9899.628470195624 526 0.039311555965477 128.62064939533 10027.865228195 407565.93425724
71	1531873 21076 0 148457 0 9950.71967350432 491 0.011596222424663 142.70861798529 10000.888924095 421561.35607181
72	1552949 20805 0 149095 0 9993.865609414847 484 0.0050625791160112 117.88323271815 10024.109175322 417556.07315024
73	1573754 20806 0 148809 0 9971.933835180298 484 0.0043146309299274 125.02370020362 10003.068252565 396576.30485388
74	1594560 22015 0 149135 0 9996.695220812781 512 0.046892977827555 108.27835304306 10005.761630777 373767.07140001
75	1616575 12567 1 149103 0.00228775245 9994.026652765158 433 1 1 433 433
76	1629142 23434 4 149108 0.10228775245 9994.126652765158 527 0.099999999998545 0.15789213647076 52.862651921173 5.3095750152103
77	1652576 10191 5 148993 0.555392552337 9983.413296829701 351 1 1 351 351
78	1662767 19167 8 148996 0.655392552337 9983.513296829701 431 0.099999999998545 0.14255399603894 43.159565662003 4.3240133717586
79	1681934 12072 9 148505 0.796757583107 9953.159456313426 416 1 1 416 416
80	1694006 22290 12 148508 0.896757583107 9953.259456313426 501 0.099999999998545 0.19216038832019 50.365910194742 5.0798933927981
81	1716296 11957 13 148653 1.221412363263 9962.764164097859 412 1 1 412 412
82	1728253 23101 16 148656 1.321412363263 9962.864164097859 520 0.099999999998545 0.19570224291692 52.151966498779 5.2417686319724
83	1751354 12176 17 148397 1.777590571823 9946.849956887649 420 1 1 420 420
84	1763530 23023 20 149106 1.877590571823 9994.087317384781 519 0.099999999998545 0.19003342391443 52.277622426208 5.2922343040209
85	1786553 10398 21 149167 1.937677450053 9998.056735961283 359 1 1 359 359
86	1796951 13111 23 147517 1.947864782496 9880.469472626809 452 1 1 452 452
87	1810062 20081 26 149172 2.037677450053 9998.156735961283 453 0.099999999998545 0.13108763320724 45.361745945029 4.5441854982137
88	1830143 24092 28 148836 2.047864782496 9973.028312586362 543 0.099999999998545 0.19766807684573 54.655299893797 5.5264189291666
89	1854235 2900 29 146857 2.070507043114 9836.313958110794 100 1 1 100 100
90	1857135 21331 32 148844 2.170507043114 9974.174058096397 481 0.099999999998545 0.19306791597501 48.465365453908 4.9079498447554
91	1878466 10396 33 149057 2.742171611863 9989.425475694083 359 1 1 359 359
92	1888862 20712 36 149060 2.842171611863 9989.525475694083 468 0.099999999998545 0.21954523442037 47.249991421788 4.81014522496
93	1909574 11605 37 148889 3.025458353437 9976.696318728667 400 1 1 400 400
94	1921179 11545 39 148457 3.065824087139 9950.71967350432 398 1 1 398 398
95	1932724 22534 42 148894 3.125458353437 9976.796318728667 507 0.099999999998545 0.18498895785524 50.838069932458 5.1069344114761
96	1955258 21769 44 148460 3.165824087139 9950.81967350432 490 0.099999999998545 0.16432186004022 49.102143171651 4.9253893058548
97	1977027 10164 45 149017 3.174191944526 9984.702307396552 349 1 1 349 349
98	1987191 19955 48 149020 3.274191944526 9984.802307396552 449 0.099999999998545 0.17912536696986 45.036763172219 4.5266997480721
99	2007146 11778 49 148857 3.722505779166 9975.006071960541 406 1 1 406 406
100	2018924 22453 52 148862 3.822505779166 9975.106071960541 495 0.099999999998545 0.14602392523193 49.546023925232 4.9613229867401
101	2041377 11158 57 147997 4.122292679277 9918.412594192559 372 1 1 372 372
102	2052535 21139 60 149092 4.222292679277 9993.363269642046 466 0.099999999998545 0.19315492129272 47.054902589064 4.7833827999216
103	2073674 12204 61 148593 4.40173689432 9958.463303796398 406 1 1 406 406
104	2085878 10886 63 148121 4.415464337692 9926.510613774326 364 1 1 364 364
105	2096764 23181 66 148992 4.50173689432 9982.996686423351 510 0.099999999998545 0.19655790544675 51.291473242736 5.177745289753
106	2119945 20979 68 148124 4.515464337692 9926.610613774326 463 0.099999999998545 0.18528777794108 46.451080759709 4.6694908031069
107	2140924 3256 69 148405 4.574488131862 9947.126403184181 109 1 1 109 109
108	2144180 23031 72 148408 4.674488131862 9947.226403184181 507 0.099999999998545 0.19801215154348 51.153843492505 5.1913398267518
109	2167211 12406 77 148945 5.216316998776 9980.888959174857 412 1 1 412 412
110	2179617 23687 80 148948 5.316316998776 9980.988959174857 521 0.099999999998545 0.19967592889407 52.826953617578 5.4126918749211
111	2203304 11970 81 149109 5.386079153525 9994.505053486241 398 1 1 398 398
112	2215274 22756 84 149112 5.486079153525 9994.605053486241 500 0.099999999998545 0.19191709029201 50.34298218843 5.0917644391004
113	2238030 11597 89 149049 6.377950969636 9988.964796016709 387 1 1 387 387
114	2249627 21805 92 149052 6.477950969636 9989.064796016709 481 0.099999999998545 0.1685342512701 48.26153442147 4.8499143305518
115	2271432 11200 93 149129 6.839376329459 9996.381944082045 373 1 1 373 373
116	2282632 21655 96 149132 6.939376329459 9996.481944082045 477 0.099999999998545 0.16230597440881 47.866801756092 4.8114131665889
117	2304287 3812 97 148519 7.200254957118 9954.08573382767 127 1 1 127 127