file 2935839 1767629712                                         
version 3
run Lognormal-20-20260105-17:15:12-28123
attr configname Lognormal
attr datetime 20260105-17:15:12
attr datetimef 20260105-171512
attr experiment Lognormal
attr inifile omnetpp.ini
attr iterationvars "$N=50, $p=0.9"
attr iterationvarsd N=50/p=0.9
attr iterationvarsf N=50,p=0.9-
attr measurement "$N=50, $p=0.9"
attr network progetto.DatabaseNetwork
attr processid 28123
attr repetition 0
attr replication #0
attr resultdir results
attr runnumber 20
attr seedset 0
itervar N 50
itervar p 0.9
config description "Lognormal distribution (hotspots) - varia N e p"
config *.user[*].tableDistribution "\"lognormal\""
config *.user[*].lognormalM 1.5
config *.user[*].lognormalS 1.0
config *.numUsers 50
config *.user[*].readProbability 0.9
config network progetto.DatabaseNetwork
config sim-time-limit 10000s
config cpu-time-limit 3600s
config repeat 5
config seed-set 0
config output-vector-file "results/Lognormal-$N=50, $p=0.9-0.vec"
config output-scalar-file "results/Lognormal-$N=50, $p=0.9-0.sca"
config result-dir results
config **.vector-recording true
config **.scalar-recording true
config *.numTables 20
config *.user[*].lambda 0.05
config *.user[*].serviceTime 0.1s

vector 0 DatabaseNetwork.user[0] AccessInterval ETV
vector 1 DatabaseNetwork.user[1] AccessInterval ETV
vector 2 DatabaseNetwork.user[2] AccessInterval ETV
vector 3 DatabaseNetwork.user[3] AccessInterval ETV
vector 4 DatabaseNetwork.user[4] AccessInterval ETV
vector 5 DatabaseNetwork.user[5] AccessInterval ETV
vector 6 DatabaseNetwork.user[6] AccessInterval ETV
vector 7 DatabaseNetwork.user[7] AccessInterval ETV
vector 8 DatabaseNetwork.user[8] AccessInterval ETV
vector 9 DatabaseNetwork.user[9] AccessInterval ETV
vector 10 DatabaseNetwork.user[10] AccessInterval ETV
vector 11 DatabaseNetwork.user[11] AccessInterval ETV
vector 12 DatabaseNetwork.user[12] AccessInterval ETV
vector 13 DatabaseNetwork.user[13] AccessInterval ETV
vector 14 DatabaseNetwork.user[14] AccessInterval ETV
vector 15 DatabaseNetwork.user[15] AccessInterval ETV
vector 16 DatabaseNetwork.user[16] AccessInterval ETV
vector 17 DatabaseNetwork.user[17] AccessInterval ETV
vector 18 DatabaseNetwork.user[18] AccessInterval ETV
vector 19 DatabaseNetwork.user[19] AccessInterval ETV
vector 20 DatabaseNetwork.user[20] AccessInterval ETV
vector 21 DatabaseNetwork.user[21] AccessInterval ETV
vector 22 DatabaseNetwork.user[22] AccessInterval ETV
vector 23 DatabaseNetwork.user[23] AccessInterval ETV
vector 24 DatabaseNetwork.user[24] AccessInterval ETV
vector 25 DatabaseNetwork.user[25] AccessInterval ETV
vector 26 DatabaseNetwork.user[26] AccessInterval ETV
vector 27 DatabaseNetwork.user[27] AccessInterval ETV
vector 28 DatabaseNetwork.user[28] AccessInterval ETV
vector 29 DatabaseNetwork.user[29] AccessInterval ETV
vector 30 DatabaseNetwork.user[30] AccessInterval ETV
vector 31 DatabaseNetwork.user[31] AccessInterval ETV
vector 32 DatabaseNetwork.user[32] AccessInterval ETV
vector 33 DatabaseNetwork.user[33] AccessInterval ETV
vector 34 DatabaseNetwork.user[34] AccessInterval ETV
vector 35 DatabaseNetwork.user[35] AccessInterval ETV
vector 36 DatabaseNetwork.user[36] AccessInterval ETV
vector 37 DatabaseNetwork.user[37] AccessInterval ETV
vector 38 DatabaseNetwork.user[38] AccessInterval ETV
vector 39 DatabaseNetwork.user[39] AccessInterval ETV
vector 40 DatabaseNetwork.user[40] AccessInterval ETV
vector 41 DatabaseNetwork.user[41] AccessInterval ETV
vector 42 DatabaseNetwork.user[42] AccessInterval ETV
vector 43 DatabaseNetwork.user[43] AccessInterval ETV
vector 44 DatabaseNetwork.user[44] AccessInterval ETV
vector 45 DatabaseNetwork.user[45] AccessInterval ETV
vector 46 DatabaseNetwork.user[46] AccessInterval ETV
vector 47 DatabaseNetwork.user[47] AccessInterval ETV
vector 48 DatabaseNetwork.user[48] AccessInterval ETV
vector 49 DatabaseNetwork.user[49] AccessInterval ETV
vector 50 DatabaseNetwork.user[32] ReadAccesses ETV
vector 51 DatabaseNetwork.user[32] WaitTime ETV
vector 52 DatabaseNetwork.user[15] ReadAccesses ETV
vector 53 DatabaseNetwork.user[15] WaitTime ETV
vector 54 DatabaseNetwork.user[28] ReadAccesses ETV
vector 55 DatabaseNetwork.user[28] WaitTime ETV
vector 56 DatabaseNetwork.user[30] ReadAccesses ETV
vector 57 DatabaseNetwork.user[30] WaitTime ETV
vector 58 DatabaseNetwork.user[48] ReadAccesses ETV
vector 59 DatabaseNetwork.user[48] WaitTime ETV
vector 60 DatabaseNetwork.user[37] ReadAccesses ETV
vector 61 DatabaseNetwork.user[37] WaitTime ETV
vector 62 DatabaseNetwork.user[15] WriteAccesses ETV
vector 63 DatabaseNetwork.user[17] ReadAccesses ETV
vector 64 DatabaseNetwork.user[17] WaitTime ETV
vector 65 DatabaseNetwork.user[13] ReadAccesses ETV
vector 66 DatabaseNetwork.user[13] WaitTime ETV
vector 67 DatabaseNetwork.user[29] ReadAccesses ETV
vector 68 DatabaseNetwork.user[29] WaitTime ETV
vector 69 DatabaseNetwork.user[17] WriteAccesses ETV
vector 70 DatabaseNetwork.user[33] ReadAccesses ETV
vector 71 DatabaseNetwork.user[33] WaitTime ETV
vector 72 DatabaseNetwork.user[18] ReadAccesses ETV
vector 73 DatabaseNetwork.user[11] ReadAccesses ETV
vector 74 DatabaseNetwork.user[18] WaitTime ETV
vector 75 DatabaseNetwork.user[11] WaitTime ETV
vector 76 DatabaseNetwork.user[25] ReadAccesses ETV
vector 77 DatabaseNetwork.user[25] WaitTime ETV
vector 78 DatabaseNetwork.user[8] ReadAccesses ETV
vector 79 DatabaseNetwork.user[8] WaitTime ETV
vector 80 DatabaseNetwork.user[12] WriteAccesses ETV
vector 81 DatabaseNetwork.user[12] WaitTime ETV
vector 82 DatabaseNetwork.user[44] WriteAccesses ETV
vector 83 DatabaseNetwork.user[44] WaitTime ETV
vector 84 DatabaseNetwork.user[41] ReadAccesses ETV
vector 85 DatabaseNetwork.user[41] WaitTime ETV
vector 86 DatabaseNetwork.user[19] ReadAccesses ETV
vector 87 DatabaseNetwork.user[23] ReadAccesses ETV
vector 88 DatabaseNetwork.user[19] WaitTime ETV
vector 89 DatabaseNetwork.user[23] WaitTime ETV
vector 90 DatabaseNetwork.user[44] ReadAccesses ETV
vector 91 DatabaseNetwork.user[45] ReadAccesses ETV
vector 92 DatabaseNetwork.user[45] WaitTime ETV
vector 93 DatabaseNetwork.user[22] ReadAccesses ETV
vector 94 DatabaseNetwork.user[22] WaitTime ETV
vector 95 DatabaseNetwork.user[6] ReadAccesses ETV
vector 96 DatabaseNetwork.user[6] WaitTime ETV
vector 97 DatabaseNetwork.user[0] ReadAccesses ETV
vector 98 DatabaseNetwork.user[0] WaitTime ETV
vector 99 DatabaseNetwork.user[24] ReadAccesses ETV
vector 100 DatabaseNetwork.user[24] WaitTime ETV
vector 101 DatabaseNetwork.user[1] ReadAccesses ETV
vector 102 DatabaseNetwork.user[1] WaitTime ETV
vector 103 DatabaseNetwork.user[4] ReadAccesses ETV
vector 104 DatabaseNetwork.user[4] WaitTime ETV
vector 105 DatabaseNetwork.user[9] ReadAccesses ETV
vector 106 DatabaseNetwork.user[9] WaitTime ETV
vector 107 DatabaseNetwork.user[10] ReadAccesses ETV
vector 108 DatabaseNetwork.user[10] WaitTime ETV
vector 109 DatabaseNetwork.user[31] ReadAccesses ETV
vector 110 DatabaseNetwork.user[31] WaitTime ETV
vector 111 DatabaseNetwork.user[18] WriteAccesses ETV
vector 112 DatabaseNetwork.user[47] ReadAccesses ETV
vector 113 DatabaseNetwork.user[47] WaitTime ETV
vector 114 DatabaseNetwork.user[2] ReadAccesses ETV
vector 115 DatabaseNetwork.user[2] WaitTime ETV
vector 116 DatabaseNetwork.user[49] ReadAccesses ETV
vector 117 DatabaseNetwork.user[49] WaitTime ETV
vector 118 DatabaseNetwork.user[36] ReadAccesses ETV
vector 119 DatabaseNetwork.user[36] WaitTime ETV
vector 120 DatabaseNetwork.user[46] ReadAccesses ETV
vector 121 DatabaseNetwork.user[46] WaitTime ETV
vector 122 DatabaseNetwork.user[36] WriteAccesses ETV
vector 123 DatabaseNetwork.user[20] ReadAccesses ETV
vector 124 DatabaseNetwork.user[20] WaitTime ETV
vector 125 DatabaseNetwork.user[42] ReadAccesses ETV
vector 126 DatabaseNetwork.user[42] WaitTime ETV
vector 127 DatabaseNetwork.user[43] ReadAccesses ETV
vector 128 DatabaseNetwork.user[43] WaitTime ETV
vector 129 DatabaseNetwork.user[21] ReadAccesses ETV
vector 130 DatabaseNetwork.user[21] WaitTime ETV
vector 131 DatabaseNetwork.user[8] WriteAccesses ETV
vector 132 DatabaseNetwork.user[34] ReadAccesses ETV
vector 133 DatabaseNetwork.user[34] WaitTime ETV
vector 134 DatabaseNetwork.user[27] ReadAccesses ETV
vector 135 DatabaseNetwork.user[27] WaitTime ETV
vector 136 DatabaseNetwork.user[3] ReadAccesses ETV
vector 137 DatabaseNetwork.user[3] WaitTime ETV
vector 138 DatabaseNetwork.user[7] ReadAccesses ETV
vector 139 DatabaseNetwork.user[7] WaitTime ETV
vector 140 DatabaseNetwork.user[5] ReadAccesses ETV
vector 141 DatabaseNetwork.user[5] WaitTime ETV
vector 142 DatabaseNetwork.user[24] WriteAccesses ETV
vector 143 DatabaseNetwork.user[38] ReadAccesses ETV
vector 144 DatabaseNetwork.user[39] ReadAccesses ETV
vector 145 DatabaseNetwork.user[38] WaitTime ETV
vector 146 DatabaseNetwork.user[39] WaitTime ETV
vector 147 DatabaseNetwork.user[47] WriteAccesses ETV
vector 148 DatabaseNetwork.user[14] ReadAccesses ETV
vector 149 DatabaseNetwork.user[14] WaitTime ETV
vector 150 DatabaseNetwork.user[49] WriteAccesses ETV
vector 151 DatabaseNetwork.user[23] WriteAccesses ETV
vector 152 DatabaseNetwork.user[26] ReadAccesses ETV
vector 153 DatabaseNetwork.user[26] WaitTime ETV
vector 154 DatabaseNetwork.user[2] WriteAccesses ETV
vector 155 DatabaseNetwork.user[12] ReadAccesses ETV
vector 156 DatabaseNetwork.user[45] WriteAccesses ETV
vector 157 DatabaseNetwork.user[21] WriteAccesses ETV
vector 158 DatabaseNetwork.user[5] WriteAccesses ETV
vector 159 DatabaseNetwork.user[35] ReadAccesses ETV
vector 160 DatabaseNetwork.user[35] WaitTime ETV
vector 161 DatabaseNetwork.user[16] ReadAccesses ETV
vector 162 DatabaseNetwork.user[16] WaitTime ETV
vector 163 DatabaseNetwork.user[32] WriteAccesses ETV
vector 164 DatabaseNetwork.user[40] ReadAccesses ETV
vector 165 DatabaseNetwork.user[40] WaitTime ETV
vector 166 DatabaseNetwork.user[25] WriteAccesses ETV
vector 167 DatabaseNetwork.user[26] WriteAccesses ETV
vector 168 DatabaseNetwork.user[48] WriteAccesses ETV
vector 169 DatabaseNetwork.user[28] WriteAccesses ETV
vector 170 DatabaseNetwork.user[20] WriteAccesses ETV
vector 171 DatabaseNetwork.user[30] WriteAccesses ETV
vector 172 DatabaseNetwork.user[16] WriteAccesses ETV
vector 173 DatabaseNetwork.user[41] WriteAccesses ETV
vector 174 DatabaseNetwork.user[1] WriteAccesses ETV
vector 175 DatabaseNetwork.user[11] WriteAccesses ETV
vector 176 DatabaseNetwork.user[7] WriteAccesses ETV
vector 177 DatabaseNetwork.user[9] WriteAccesses ETV
vector 178 DatabaseNetwork.user[19] WriteAccesses ETV
vector 179 DatabaseNetwork.user[22] WriteAccesses ETV
vector 180 DatabaseNetwork.user[27] WriteAccesses ETV
vector 181 DatabaseNetwork.user[42] WriteAccesses ETV
vector 182 DatabaseNetwork.user[13] WriteAccesses ETV
vector 183 DatabaseNetwork.user[46] WriteAccesses ETV
vector 184 DatabaseNetwork.user[37] WriteAccesses ETV
vector 185 DatabaseNetwork.user[4] WriteAccesses ETV
vector 186 DatabaseNetwork.user[38] WriteAccesses ETV
vector 187 DatabaseNetwork.user[43] WriteAccesses ETV
vector 188 DatabaseNetwork.user[31] WriteAccesses ETV
vector 189 DatabaseNetwork.user[14] WriteAccesses ETV
vector 190 DatabaseNetwork.user[6] WriteAccesses ETV
vector 191 DatabaseNetwork.user[33] WriteAccesses ETV
vector 192 DatabaseNetwork.user[35] WriteAccesses ETV
vector 193 DatabaseNetwork.user[10] WriteAccesses ETV
vector 194 DatabaseNetwork.user[29] WriteAccesses ETV
vector 195 DatabaseNetwork.user[39] WriteAccesses ETV
vector 196 DatabaseNetwork.user[40] WriteAccesses ETV
vector 197 DatabaseNetwork.user[34] WriteAccesses ETV
vector 198 DatabaseNetwork.user[0] WriteAccesses ETV
vector 199 DatabaseNetwork.user[3] WriteAccesses ETV
0	11583 21220 0 100369 0 9982.364843656472 510 0.11433341971699 108.93152837103 10006.690259498 374345.87990505
1	32803 20442 0 100357 0 9982.100119735414 492 0.042365389408942 150.39288612375 10011.181366476 425323.47651426
2	53245 20561 0 100095 0 9960.754463788792 495 0.053236970536169 101.04206454621 10001.523302563 372706.19012796
3	73806 21441 0 100425 0 9988.864103507466 516 0.08178310276208 113.99811879381 10038.60216264 380765.98861148
4	95247 22115 0 100513 0 9998.755103797504 533 0.045189858943017 153.69079373027 10017.854101762 382791.56756874
5	117362 21933 0 99933 0 9942.401416777834 528 0.063202768652032 120.41424215752 10027.847239557 376022.19814305
6	139295 19792 0 100029 0 9950.726577869657 476 0.003742595179558 113.21339886743 10027.941048032 405104.96493644
7	159087 20825 0 100145 0 9965.180280048307 500 0.023080123444745 172.82851648426 10008.500085898 398969.44966053
8	179912 21308 0 100381 0 9983.278626502026 513 0.12423974676654 132.26861681086 10001.326226912 388778.66319204
9	201220 21909 0 100517 0 9998.889215444852 526 0.05691502467706 115.13983644316 10003.355365023 372473.6522872
10	223129 21328 0 100501 0 9998.165556916457 501 0.005141850230831 106.68229431603 10006.822131826 383320.17057778
11	244457 21364 0 100449 0 9991.777812597396 502 0.021565947850516 140.71934260474 10008.034030056 407019.99364146
12	265821 21486 0 100509 0 9998.600396009487 504 0.076720332282591 149.27274450709 10000.134460064 407279.79342706
13	287307 19872 0 100283 0 9977.282406612312 466 0.041177514348657 128.56768614898 10007.283223285 414833.60547965
14	307179 21347 0 100237 0 9973.115183568377 501 0.004157804903935 178.21895212618 10000.309396427 394956.93072384
15	328526 21546 0 99965 0 9944.4872859563 506 0.054296951247414 151.28606356211 10012.965534168 396960.68694853
16	350072 21992 0 100519 0 9998.925395677857 516 0.029971782792722 176.61532610462 10017.911616709 412201.17019608
17	372064 20643 0 99929 0 9942.014861615131 485 0.07296338413285 113.44659869457 10034.08591918 388639.52419518
18	392707 21413 0 100453 0 9992.578567596212 503 0.0011070379028486 110.54349524013 10044.01547373 394822.69300625
19	414120 21247 0 100089 0 9960.422986364972 499 0.0032621907540491 154.35319894632 10025.920359997 411515.34427533
20	435367 22112 0 100497 0 9997.040377532533 519 0.035115150463922 130.26663936661 10002.798484321 375901.22672288
21	457479 20607 0 100021 0 9949.17937472883 484 0.0052135573475197 151.66150107625 10000.937302925 427242.66916452
22	478086 21962 0 100377 0 9982.699175419697 516 0.0040259631920463 124.54864335957 10009.10581974 392525.68223736
23	500048 20193 0 100477 0 9995.278686257949 474 0.025953155093071 129.94105897015 10013.043970146 422130.01384768
24	520241 22757 0 100299 0 9979.024297588195 534 0.11013829823614 112.57184673376 10004.79459459 362673.53613051
25	542998 20829 0 100349 0 9981.731956426782 490 0.049571095039782 123.59569550328 10000.933499353 387935.58485163
26	563827 21688 0 100481 0 9995.625226106668 509 0.019417766551405 184.15303675023 10014.962890832 397334.65512935
27	585515 21846 0 100503 0 9998.174664876903 513 8.0219630844018e-05 144.01069737261 10027.254944298 392396.88531961
28	607361 20588 0 100253 0 9974.252478185158 484 0.00040060310428949 139.66698440788 10001.099022253 434812.76432049
29	627949 20654 0 100437 0 9989.675498469917 486 0.0037346262254305 208.92948883596 10021.405233432 427244.45449104
30	648603 21232 0 100529 0 9999.209935089835 499 0.083397652155151 105.42621549641 10000.670063689 401343.62640024
31	669835 22512 0 100493 0 9996.793911191895 529 0.0097283535492156 113.99181315243 10003.829780768 352875.68181958
32	692347 22419 0 100525 0 9999.080427675296 527 0.01170749646189 135.20673919738 10009.87598296 370349.59372804
33	714766 21807 0 100461 0 9993.508410365429 512 0.029059072502641 126.30411855754 10021.545703165 363407.97255448
34	736573 22376 0 100197 0 9969.895514580928 525 0.02386011750891 111.91704242205 10043.152585026 383077.07521568
35	758949 20856 0 100207 0 9970.937764268121 489 0.024970477121755 127.32321422547 10001.979191262 414147.80125219
36	779805 21876 0 100445 0 9990.763237464273 514 0.020558602831469 152.58079929702 10010.765629507 411021.95744319
37	801681 21942 0 100269 0 9975.546370794148 515 0.0075581094668229 126.82357116766 10059.120307197 384098.22033301
38	823623 21914 0 100239 0 9973.18800671442 515 0.01702007270427 190.29329799563 10031.062125951 419270.34623886
39	845537 21406 0 100323 0 9980.595521307989 502 0.034686115124155 152.30380505754 10043.543424644 398733.14030976
40	866943 19867 0 100429 0 9989.016837766758 466 0.013125029606403 153.87734541239 10014.472792166 430825.98562439
41	886810 20961 0 100161 0 9966.401083178819 493 0.033494899227052 115.6512412828 10002.23684689 375840.43898882
42	907771 21928 0 100473 0 9994.741196948155 514 0.012461424424034 128.62676746103 10028.503777464 378966.36048847
43	929699 21017 0 100265 0 9975.280415139802 493 0.028995776496746 129.05940210036 10012.593909791 432658.73060028
44	950716 20747 0 100485 0 9996.260181418725 487 0.095961734708838 124.8790321623 10042.671090346 435389.39677608
45	971463 20861 0 100341 0 9981.207399311203 489 0.042487334426532 194.52080564538 10010.165589718 412439.30944617
46	992324 23188 0 100421 0 9988.67450193043 544 0.031153573049185 129.36422087509 10013.028534964 341973.02421472
47	1015512 21054 0 100133 0 9964.280110367925 494 0.052682680956729 112.59759003383 10009.737024989 390486.91757817
48	1036566 20975 0 100441 0 9990.499490232892 493 0.01471318267797 154.14098727246 10026.266219393 429480.75746406
49	1057541 21351 0 100345 0 9981.335064498811 502 0.014344357907685 161.25887218539 10026.911839212 392842.92157557
50	1078892 13765 1 100525 0.408511767981 9999.080427675296 481 1 1 481 481
51	1092657 23129 4 100528 0.508511767981 9999.180427675296 526 0.099999999998545 0.15322061402276 52.653220614018 5.2734765565606
52	1115786 13254 5 99965 1.167693381862 9944.4872859563 462 1 1 462 462
53	1129040 22267 8 99968 1.267693381862 9944.5872859563 505 0.099999999998545 0.15479656427851 50.577370666936 5.068986386955
54	1151307 12431 9 100253 1.473707109302 9974.252478185158 434 1 1 434 434
55	1163738 21232 12 100256 1.573707109302 9974.352478185158 483 0.099999999998545 0.15037478322301 48.350374783231 4.8426125754309
56	1184970 12905 13 100529 1.823220522486 9999.209935089835 451 1 1 451 451
57	1197875 21902 16 100532 1.923220522486 9999.309935089835 498 0.099999999998545 0.10000000000036 49.800000000009 4.9800000000019
58	1219777 12702 17 100441 2.517488188761 9990.499490232892 443 1 1 443 443
59	1232479 21689 20 100444 2.617488188761 9990.599490232892 492 0.099999999998545 0.15072006654918 49.264724637063 4.9357135805584
60	1254168 13192 21 100269 3.0246170733 9975.546370794148 460 1 1 460 460
61	1267360 22649 24 100272 3.1246170733 9975.646370794148 514 0.099999999998545 0.10588353736102 51.405883537359 5.1412113234836
62	1290009 1230 25 99551 3.406616594515 9906.989416361574 43 1 1 43 43
63	1291239 12563 33 99929 6.367122816836 9942.014861615131 438 1 1 438 438
64	1303802 21331 36 99932 6.467122816836 9942.114861615131 484 0.099999999998545 0.11198795902237 48.411987959027 4.842541302967
65	1325133 11945 41 100283 7.06318278275 9977.282406612312 416 1 1 416 416
66	1337078 20481 44 100288 7.16318278275 9977.382406612312 465 0.099999999998545 0.10000000000036 46.499999999981 4.6499999999962
67	1357559 12511 49 100437 8.231559924852 9989.675498469917 438 1 1 438 438
68	1370070 21299 52 100440 8.331559924852 9989.775498469917 485 0.099999999998545 0.19612749157068 48.94827130782 4.9756504527966
69	1391369 1312 53 98381 8.45834733234 9787.705365583888 46 1 1 46 46
70	1392681 13267 61 100461 9.184962745104 9993.508410365429 463 1 1 463 463
71	1405948 22507 64 100466 9.284962745104 9993.608410365429 511 0.099999999998545 0.19978376015752 51.364669088034 5.1867701786225
72	1428455 12548 65 100453 9.672042098969 9992.578567596212 438 1 1 438 438
73	1441003 12946 67 100449 9.702563274433 9991.777812597396 451 1 1 451 451
74	1453949 22077 70 100456 9.772042098969 9992.678567596212 502 0.099999999998545 0.15684347029492 50.256843470285 5.0345998741722
75	1476026 22116 72 100452 9.802563274433 9991.877812597396 501 0.099999999998545 0.16871258466927 50.233318051528 5.0455588959474
76	1498142 12627 73 100349 9.977440180318 9981.731956426782 441 1 1 441 441
77	1510769 21495 76 100354 10.077440180318 9981.831956426782 489 0.099999999998545 0.17535767544905 49.036118899615 4.9265944855345
78	1532264 13228 81 100381 11.020969733406 9983.278626502026 462 1 1 462 462
79	1545492 22511 84 100384 11.120969733406 9983.378626502026 512 0.099999999998545 0.19474352506586 51.465827426162 5.1933602762453
80	1568003 1375 89 100409 11.51038393766 9987.81689932564 48 1 1 48 48
81	1569378 22210 92 100512 11.61038393766 9998.700396009487 503 0.099999999998545 0.10520828316498 50.305208283145 5.0310687828425
82	1591588 1204 93 100171 12.378589192534 9966.654437340418 42 1 1 42 42
83	1592792 21415 96 100488 12.478589192534 9996.360181418725 486 0.099999999998545 0.13001117739987 48.658689881495 4.8732184430937
84	1614207 13140 97 100161 12.834183453562 9966.401083178819 459 1 1 459 459
85	1627347 21636 100 100164 12.934183453562 9966.501083178819 492 0.099999999998545 0.18168447452399 49.337061927628 4.9552739918417
86	1648983 12863 101 100089 12.988926965017 9960.422986364972 449 1 1 449 449
87	1661846 12306 103 100477 13.077651344422 9995.278686257949 429 1 1 429 429
88	1674152 21968 106 100092 13.088926965017 9960.522986364972 498 0.099999999998545 0.15588439148542 49.855884391475 4.9942999435067
89	1696120 20843 108 100480 13.177651344422 9995.378686257949 473 0.099999999998545 0.16394654018768 47.422109033106 4.7618938422052
90	1716963 12738 113 100485 13.525127721009 9996.260181418725 444 1 1 444 444
91	1729701 12479 117 100205 14.699288423796 9970.880528317223 434 1 1 434 434
92	1742180 21538 120 100344 14.799288423796 9981.307399311203 488 0.099999999998545 0.19209981226777 49.017262412034 4.9407158021038
93	1763718 13393 121 100377 15.053482266256 9982.699175419697 467 1 1 467 467
94	1777111 22718 124 100380 15.153482266256 9982.799175419697 515 0.099999999998545 0.11404390935422 51.521172420084 5.1544825310719
95	1799829 12020 125 100029 15.744022799638 9950.726577869657 419 1 1 419 419
96	1811849 20925 130 100032 15.844022799638 9950.826577869657 475 0.099999999998545 0.11732007540922 47.517320075411 4.7537640000943
97	1832774 13204 131 100369 15.917490091316 9982.364843656472 460 1 1 460 460
98	1845978 22438 140 100374 16.017490091316 9982.464843656472 509 0.099999999998545 0.12153321332244 50.931757332166 5.0969196783154
99	1868416 13403 145 100299 16.788657058005 9979.024297588195 467 1 1 467 467
100	1881819 24054 148 100304 16.888657058005 9979.124297588195 533 0.099999999998545 0.19395224067921 53.486184109333 5.38457056299
101	1905873 13165 159 100357 17.971207769679 9982.100119735414 444 1 1 444 444
102	1919038 22148 164 100364 18.071207769679 9982.200119735414 491 0.099999999998545 0.14456685327241 49.181008400032 4.9295158707472
103	1941186 14169 167 100513 18.464462629416 9998.755103797504 479 1 1 479 479
104	1955355 23948 172 100516 18.564462629416 9998.855103797504 532 0.099999999998545 0.10000000000036 53.199999999994 5.3199999999988
105	1979303 13964 173 100517 19.540128527867 9998.889215444852 470 1 1 470 470
106	1993267 23730 176 100522 19.640128527867 9998.989215444852 525 0.099999999998545 0.17034385329316 52.570343853285 5.2690170283531
107	2016997 13285 177 100501 20.763186013277 9998.165556916457 448 1 1 448 448
108	2030282 22535 180 100506 20.863186013277 9998.265556916457 500 0.099999999998545 0.18421567006681 50.084215670061 5.023935413097
109	2052817 14023 181 100493 20.892250166162 9996.793911191895 473 1 1 473 473
110	2066840 23795 184 100496 20.992250166162 9996.893911191895 528 0.099999999998545 0.16586081115656 52.865860811158 5.2975098086777
111	2090635 1886 193 98425 22.54766213102 9791.581922795234 64 1 1 64 64
112	2092521 13084 197 100133 22.718778834205 9964.280110367925 440 1 1 440 440
113	2105605 22251 200 100138 22.818778834205 9964.380110367925 493 0.099999999998545 0.12880498293998 49.328804982948 4.9365907236317
114	2127856 13381 209 100095 25.118615160948 9960.754463788792 451 1 1 451 451
115	2141237 22264 212 100100 25.218615160948 9960.854463788792 494 0.099999999998545 0.16770751673357 49.59771134381 4.990309481863
116	2163501 13692 213 100345 25.504554044473 9981.335064498811 462 1 1 462 462
117	2177193 22547 216 100348 25.604554044473 9981.435064498811 501 0.099999999998545 0.18243898213177 50.183070949624 5.0334107750827
118	2199740 13522 265 100445 30.115685172748 9990.763237464273 456 1 1 456 456
119	2213262 23063 268 100448 30.215685172748 9990.863237464273 513 0.099999999998545 0.1880895914029 51.511602628464 5.189082614431
120	2236325 14583 269 100421 30.330719479804 9988.67450193043 491 1 1 491 491
121	2250908 24507 274 100424 30.430719479804 9988.77450193043 543 0.099999999998545 0.21749519811146 54.562581968389 5.5075827948667
122	2275415 1676 277 94489 30.791420883786 9415.008478965483 57 1 1 57 57
123	2277091 13944 287 100497 31.37792235246 9997.040377532533 469 1 1 469 469
124	2291035 23397 296 100500 31.47792235246 9997.140377532533 518 0.099999999998545 0.15932997151413 51.859329971522 5.1953860398243
125	2314432 13616 301 100473 32.10479114123 9994.741196948155 458 1 1 458 458
126	2328048 23207 306 100476 32.20479114123 9994.841196948155 513 0.099999999998545 0.10000000000036 51.299999999994 5.1299999999988
127	2351255 12900 309 100265 32.280041497851 9975.280415139802 434 1 1 434 434
128	2364155 22228 312 100268 32.380041497851 9975.380415139802 492 0.099999999998545 0.18435618058538 49.376017421273 4.9660145996463
129	2386383 12924 313 100021 33.444224006499 9949.17937472883 435 1 1 435 435
130	2399307 21798 316 100024 33.544224006499 9949.27937472883 483 0.099999999998545 0.18993620286892 48.467525924564 4.8759759682827
131	2421105 1472 317 100135 33.690548617102 9964.341974694089 50 1 1 50 50
132	2422577 13917 337 100197 35.749753268773 9969.895514580928 469 1 1 469 469
133	2436494 23640 340 100200 35.849753268773 9969.995514580928 524 0.099999999998545 0.16656578152651 52.552582608777 5.2787696433032
134	2460134 13526 341 100503 36.167385285499 9998.174664876903 456 1 1 456 456
135	2473660 23074 344 100508 36.267385285499 9998.274664876903 512 0.099999999998545 0.16087408572639 51.284690702163 5.141211025964
136	2496734 14013 351 100425 37.192084241493 9988.864103507466 473 1 1 473 473
137	2510747 23189 356 100428 37.292084241493 9988.964103507466 515 0.099999999998545 0.16441635796582 51.71259351394 5.2040315092304
138	2533936 13231 357 100145 37.579281084055 9965.180280048307 445 1 1 445 445
139	2547167 22542 360 100148 37.679281084055 9965.280280048307 499 0.099999999998545 0.17373250225955 50.219344192078 5.0753603496979
140	2569709 13904 365 99933 39.030906717689 9942.401416777834 469 1 1 469 469
141	2583613 23739 368 99936 39.130906717689 9942.501416777834 527 0.099999999998545 0.10023898100644 52.700238981015 5.2700478533149
142	2607352 1959 369 99045 39.538892711331 9860.656841746057 66 1 1 66 66
143	2609311 13839 397 100239 40.806285158838 9973.18800671442 467 1 1 467 467
144	2623150 13318 399 100323 40.817844318234 9980.595521307989 448 1 1 448 448
145	2636468 23186 402 100244 40.906285158838 9973.28800671442 514 0.099999999998545 0.15312468291631 51.492582298973 5.1628955951942
146	2659654 22624 404 100328 40.917844318234 9980.695521307989 501 0.099999999998545 0.1118815219852 50.111881521989 5.0125174749624
147	2682278 1573 405 99263 42.007850144083 9879.53829848076 53 1 1 53 53
148	2683851 13267 425 100229 44.470488440726 9972.785819385229 447 1 1 447 447
149	2697118 22535 428 100242 44.570488440726 9973.215183568377 500 0.099999999998545 0.12156543554784 50.021565435545 5.0047781551193
150	2719653 1150 457 93445 48.224650852862 9312.83118605288 39 1 1 39 39
151	2720803 1307 465 98729 49.80476962021 9821.93552417669 44 1 1 44 44
152	2722110 13448 493 100481 51.965081716979 9995.625226106668 453 1 1 453 453
153	2735558 22898 496 100484 52.065081716979 9995.725226106668 508 0.099999999998545 0.19797745627602 51.101475096618 5.1648977261459
154	2758456 1260 501 94313 52.778199291684 9400.080641960889 43 1 1 43 43
155	2759716 13522 509 100509 53.616809953505 9998.600396009487 455 1 1 455 455
156	2773238 1610 521 100341 54.76409887394 9981.207399311203 54 1 1 54 54
157	2774848 1425 545 99589 57.463642137338 9910.170115356353 48 1 1 48 48
158	2776273 1721 549 97909 57.712113369794 9744.603402544065 58 1 1 58 58
159	2777994 13048 581 100207 63.003398573518 9970.937764268121 439 1 1 439 439
160	2791042 22049 584 100212 63.103398573518 9971.037764268121 488 0.099999999998545 0.17569292946428 48.962892206616 4.9228022289435
161	2813091 14067 617 100519 66.298245598566 9998.925395677857 473 1 1 473 473
162	2827158 23269 622 100524 66.398245598566 9999.025395677857 515 0.099999999998545 0.10000000000036 51.500000000006 5.1500000000011
163	2850427 1330 683 95893 72.656749262232 9549.054450995212 45 1 1 45 45
164	2851757 12541 753 100429 76.904437382837 9989.016837766758 422 1 1 422 422
165	2864298 21004 758 100432 77.004437382837 9989.116837766758 465 0.099999999998545 0.16353224762224 46.563532247625 4.6667427960129
166	2885302 1411 789 99683 79.691448015754 9921.618414271548 48 1 1 48 48
167	2886713 1634 799 97745 80.813994055993 9726.592164298063 55 1 1 55 55
168	2888347 1456 833 100141 85.593549829414 9964.468800033547 49 1 1 49 49
169	2889803 1452 845 98497 87.231609825239 9798.550613319199 49 1 1 49 49
170	2891255 1454 897 99295 90.373442933401 9881.432662119622 49 1 1 49 49
171	2892709 1395 925 100351 92.030317962894 9981.778048871616 47 1 1 47 47
172	2894104 1244 1073 98009 103.880614282767 9753.905872771322 42 1 1 42 42
173	2895348 978 1097 100041 106.273824732542 9952.350274728382 33 1 1 33 33
174	2896326 1396 1195 95501 114.435307903568 9516.441733798481 47 1 1 47 47
175	2897722 1477 1233 98691 118.665861832605 9817.750114203012 50 1 1 50 50
176	2899199 1603 1325 94805 124.599590307472 9448.062841628385 54 1 1 54 54
177	2900802 1643 1445 97631 137.298207241036 9715.068048926574 55 1 1 55 55