file 2921457 1767629712                                         
version 3
run Lognormal-17-20260105-17:15:12-28123
attr configname Lognormal
attr datetime 20260105-17:15:12
attr datetimef 20260105-171512
attr experiment Lognormal
attr inifile omnetpp.ini
attr iterationvars "$N=50, $p=0.8"
attr iterationvarsd N=50/p=0.8
attr iterationvarsf N=50,p=0.8-
attr measurement "$N=50, $p=0.8"
attr network progetto.DatabaseNetwork
attr processid 28123
attr repetition 2
attr replication #2
attr resultdir results
attr runnumber 17
attr seedset 2
itervar N 50
itervar p 0.8
config description "Lognormal distribution (hotspots) - varia N e p"
config *.user[*].tableDistribution "\"lognormal\""
config *.user[*].lognormalM 1.5
config *.user[*].lognormalS 1.0
config *.numUsers 50
config *.user[*].readProbability 0.8
config network progetto.DatabaseNetwork
config sim-time-limit 10000s
config cpu-time-limit 3600s
config repeat 5
config seed-set 2
config output-vector-file "results/Lognormal-$N=50, $p=0.8-2.vec"
config output-scalar-file "results/Lognormal-$N=50, $p=0.8-2.sca"
config result-dir results
config **.vector-recording true
config **.scalar-recording true
config *.numTables 20
config *.user[*].lambda 0.05
config *.user[*].serviceTime 0.1s

vector 0 DatabaseNetwork.user[0] AccessInterval ETV
vector 1 DatabaseNetwork.user[1] AccessInterval ETV
vector 2 DatabaseNetwork.user[2] AccessInterval ETV
vector 3 DatabaseNetwork.user[3] AccessInterval ETV
vector 4 DatabaseNetwork.user[4] AccessInterval ETV
vector 5 DatabaseNetwork.user[5] AccessInterval ETV
vector 6 DatabaseNetwork.user[6] AccessInterval ETV
vector 7 DatabaseNetwork.user[7] AccessInterval ETV
vector 8 DatabaseNetwork.user[8] AccessInterval ETV
vector 9 DatabaseNetwork.user[9] AccessInterval ETV
vector 10 DatabaseNetwork.user[10] AccessInterval ETV
vector 11 DatabaseNetwork.user[11] AccessInterval ETV
vector 12 DatabaseNetwork.user[12] AccessInterval ETV
vector 13 DatabaseNetwork.user[13] AccessInterval ETV
vector 14 DatabaseNetwork.user[14] AccessInterval ETV
vector 15 DatabaseNetwork.user[15] AccessInterval ETV
vector 16 DatabaseNetwork.user[16] AccessInterval ETV
vector 17 DatabaseNetwork.user[17] AccessInterval ETV
vector 18 DatabaseNetwork.user[18] AccessInterval ETV
vector 19 DatabaseNetwork.user[19] AccessInterval ETV
vector 20 DatabaseNetwork.user[20] AccessInterval ETV
vector 21 DatabaseNetwork.user[21] AccessInterval ETV
vector 22 DatabaseNetwork.user[22] AccessInterval ETV
vector 23 DatabaseNetwork.user[23] AccessInterval ETV
vector 24 DatabaseNetwork.user[24] AccessInterval ETV
vector 25 DatabaseNetwork.user[25] AccessInterval ETV
vector 26 DatabaseNetwork.user[26] AccessInterval ETV
vector 27 DatabaseNetwork.user[27] AccessInterval ETV
vector 28 DatabaseNetwork.user[28] AccessInterval ETV
vector 29 DatabaseNetwork.user[29] AccessInterval ETV
vector 30 DatabaseNetwork.user[30] AccessInterval ETV
vector 31 DatabaseNetwork.user[31] AccessInterval ETV
vector 32 DatabaseNetwork.user[32] AccessInterval ETV
vector 33 DatabaseNetwork.user[33] AccessInterval ETV
vector 34 DatabaseNetwork.user[34] AccessInterval ETV
vector 35 DatabaseNetwork.user[35] AccessInterval ETV
vector 36 DatabaseNetwork.user[36] AccessInterval ETV
vector 37 DatabaseNetwork.user[37] AccessInterval ETV
vector 38 DatabaseNetwork.user[38] AccessInterval ETV
vector 39 DatabaseNetwork.user[39] AccessInterval ETV
vector 40 DatabaseNetwork.user[40] AccessInterval ETV
vector 41 DatabaseNetwork.user[41] AccessInterval ETV
vector 42 DatabaseNetwork.user[42] AccessInterval ETV
vector 43 DatabaseNetwork.user[43] AccessInterval ETV
vector 44 DatabaseNetwork.user[44] AccessInterval ETV
vector 45 DatabaseNetwork.user[45] AccessInterval ETV
vector 46 DatabaseNetwork.user[46] AccessInterval ETV
vector 47 DatabaseNetwork.user[47] AccessInterval ETV
vector 48 DatabaseNetwork.user[48] AccessInterval ETV
vector 49 DatabaseNetwork.user[49] AccessInterval ETV
vector 50 DatabaseNetwork.user[2] ReadAccesses ETV
vector 51 DatabaseNetwork.user[2] WaitTime ETV
vector 52 DatabaseNetwork.user[42] ReadAccesses ETV
vector 53 DatabaseNetwork.user[42] WaitTime ETV
vector 54 DatabaseNetwork.user[38] ReadAccesses ETV
vector 55 DatabaseNetwork.user[38] WaitTime ETV
vector 56 DatabaseNetwork.user[46] ReadAccesses ETV
vector 57 DatabaseNetwork.user[46] WaitTime ETV
vector 58 DatabaseNetwork.user[45] ReadAccesses ETV
vector 59 DatabaseNetwork.user[15] ReadAccesses ETV
vector 60 DatabaseNetwork.user[45] WaitTime ETV
vector 61 DatabaseNetwork.user[15] WaitTime ETV
vector 62 DatabaseNetwork.user[48] ReadAccesses ETV
vector 63 DatabaseNetwork.user[48] WaitTime ETV
vector 64 DatabaseNetwork.user[24] WriteAccesses ETV
vector 65 DatabaseNetwork.user[24] WaitTime ETV
vector 66 DatabaseNetwork.user[11] WriteAccesses ETV
vector 67 DatabaseNetwork.user[11] WaitTime ETV
vector 68 DatabaseNetwork.user[37] ReadAccesses ETV
vector 69 DatabaseNetwork.user[37] WaitTime ETV
vector 70 DatabaseNetwork.user[47] ReadAccesses ETV
vector 71 DatabaseNetwork.user[28] ReadAccesses ETV
vector 72 DatabaseNetwork.user[1] ReadAccesses ETV
vector 73 DatabaseNetwork.user[47] WaitTime ETV
vector 74 DatabaseNetwork.user[28] WaitTime ETV
vector 75 DatabaseNetwork.user[1] WaitTime ETV
vector 76 DatabaseNetwork.user[12] ReadAccesses ETV
vector 77 DatabaseNetwork.user[12] WaitTime ETV
vector 78 DatabaseNetwork.user[31] WriteAccesses ETV
vector 79 DatabaseNetwork.user[31] WaitTime ETV
vector 80 DatabaseNetwork.user[18] WriteAccesses ETV
vector 81 DatabaseNetwork.user[18] WaitTime ETV
vector 82 DatabaseNetwork.user[43] ReadAccesses ETV
vector 83 DatabaseNetwork.user[43] WaitTime ETV
vector 84 DatabaseNetwork.user[41] ReadAccesses ETV
vector 85 DatabaseNetwork.user[16] ReadAccesses ETV
vector 86 DatabaseNetwork.user[41] WaitTime ETV
vector 87 DatabaseNetwork.user[16] WaitTime ETV
vector 88 DatabaseNetwork.user[9] WriteAccesses ETV
vector 89 DatabaseNetwork.user[9] WaitTime ETV
vector 90 DatabaseNetwork.user[10] ReadAccesses ETV
vector 91 DatabaseNetwork.user[10] WaitTime ETV
vector 92 DatabaseNetwork.user[35] WriteAccesses ETV
vector 93 DatabaseNetwork.user[35] WaitTime ETV
vector 94 DatabaseNetwork.user[8] ReadAccesses ETV
vector 95 DatabaseNetwork.user[8] WaitTime ETV
vector 96 DatabaseNetwork.user[44] ReadAccesses ETV
vector 97 DatabaseNetwork.user[44] WaitTime ETV
vector 98 DatabaseNetwork.user[6] ReadAccesses ETV
vector 99 DatabaseNetwork.user[0] WriteAccesses ETV
vector 100 DatabaseNetwork.user[6] WaitTime ETV
vector 101 DatabaseNetwork.user[0] WaitTime ETV
vector 102 DatabaseNetwork.user[7] ReadAccesses ETV
vector 103 DatabaseNetwork.user[17] ReadAccesses ETV
vector 104 DatabaseNetwork.user[7] WaitTime ETV
vector 105 DatabaseNetwork.user[17] WaitTime ETV
vector 106 DatabaseNetwork.user[34] ReadAccesses ETV
vector 107 DatabaseNetwork.user[49] ReadAccesses ETV
vector 108 DatabaseNetwork.user[34] WaitTime ETV
vector 109 DatabaseNetwork.user[49] WaitTime ETV
vector 110 DatabaseNetwork.user[25] ReadAccesses ETV
vector 111 DatabaseNetwork.user[25] WaitTime ETV
vector 112 DatabaseNetwork.user[40] WriteAccesses ETV
vector 113 DatabaseNetwork.user[40] WaitTime ETV
vector 114 DatabaseNetwork.user[26] ReadAccesses ETV
vector 115 DatabaseNetwork.user[26] WaitTime ETV
vector 116 DatabaseNetwork.user[22] ReadAccesses ETV
vector 117 DatabaseNetwork.user[22] WaitTime ETV
vector 118 DatabaseNetwork.user[33] ReadAccesses ETV
vector 119 DatabaseNetwork.user[33] WaitTime ETV
vector 120 DatabaseNetwork.user[4] ReadAccesses ETV
vector 121 DatabaseNetwork.user[4] WaitTime ETV
vector 122 DatabaseNetwork.user[24] ReadAccesses ETV
vector 123 DatabaseNetwork.user[27] ReadAccesses ETV
vector 124 DatabaseNetwork.user[27] WaitTime ETV
vector 125 DatabaseNetwork.user[14] ReadAccesses ETV
vector 126 DatabaseNetwork.user[20] ReadAccesses ETV
vector 127 DatabaseNetwork.user[14] WaitTime ETV
vector 128 DatabaseNetwork.user[20] WaitTime ETV
vector 129 DatabaseNetwork.user[20] WriteAccesses ETV
vector 130 DatabaseNetwork.user[19] ReadAccesses ETV
vector 131 DatabaseNetwork.user[19] WaitTime ETV
vector 132 DatabaseNetwork.user[23] ReadAccesses ETV
vector 133 DatabaseNetwork.user[23] WaitTime ETV
vector 134 DatabaseNetwork.user[13] WriteAccesses ETV
vector 135 DatabaseNetwork.user[13] WaitTime ETV
vector 136 DatabaseNetwork.user[40] ReadAccesses ETV
vector 137 DatabaseNetwork.user[29] ReadAccesses ETV
vector 138 DatabaseNetwork.user[29] WaitTime ETV
vector 139 DatabaseNetwork.user[0] ReadAccesses ETV
vector 140 DatabaseNetwork.user[13] ReadAccesses ETV
vector 141 DatabaseNetwork.user[18] ReadAccesses ETV
vector 142 DatabaseNetwork.user[30] ReadAccesses ETV
vector 143 DatabaseNetwork.user[30] WaitTime ETV
vector 144 DatabaseNetwork.user[34] WriteAccesses ETV
vector 145 DatabaseNetwork.user[9] ReadAccesses ETV
vector 146 DatabaseNetwork.user[17] WriteAccesses ETV
vector 147 DatabaseNetwork.user[48] WriteAccesses ETV
vector 148 DatabaseNetwork.user[21] WriteAccesses ETV
vector 149 DatabaseNetwork.user[21] WaitTime ETV
vector 150 DatabaseNetwork.user[14] WriteAccesses ETV
vector 151 DatabaseNetwork.user[25] WriteAccesses ETV
vector 152 DatabaseNetwork.user[19] WriteAccesses ETV
vector 153 DatabaseNetwork.user[36] ReadAccesses ETV
vector 154 DatabaseNetwork.user[36] WaitTime ETV
vector 155 DatabaseNetwork.user[6] WriteAccesses ETV
vector 156 DatabaseNetwork.user[32] ReadAccesses ETV
vector 157 DatabaseNetwork.user[32] WaitTime ETV
vector 158 DatabaseNetwork.user[28] WriteAccesses ETV
vector 159 DatabaseNetwork.user[21] ReadAccesses ETV
vector 160 DatabaseNetwork.user[45] WriteAccesses ETV
vector 161 DatabaseNetwork.user[10] WriteAccesses ETV
vector 162 DatabaseNetwork.user[37] WriteAccesses ETV
vector 163 DatabaseNetwork.user[3] ReadAccesses ETV
vector 164 DatabaseNetwork.user[3] WaitTime ETV
vector 165 DatabaseNetwork.user[41] WriteAccesses ETV
vector 166 DatabaseNetwork.user[30] WriteAccesses ETV
vector 167 DatabaseNetwork.user[5] ReadAccesses ETV
vector 168 DatabaseNetwork.user[5] WaitTime ETV
vector 169 DatabaseNetwork.user[2] WriteAccesses ETV
vector 170 DatabaseNetwork.user[35] ReadAccesses ETV
vector 171 DatabaseNetwork.user[31] ReadAccesses ETV
vector 172 DatabaseNetwork.user[33] WriteAccesses ETV
vector 173 DatabaseNetwork.user[23] WriteAccesses ETV
vector 174 DatabaseNetwork.user[39] ReadAccesses ETV
vector 175 DatabaseNetwork.user[39] WaitTime ETV
vector 176 DatabaseNetwork.user[3] WriteAccesses ETV
vector 177 DatabaseNetwork.user[42] WriteAccesses ETV
vector 178 DatabaseNetwork.user[15] WriteAccesses ETV
vector 179 DatabaseNetwork.user[26] WriteAccesses ETV
vector 180 DatabaseNetwork.user[22] WriteAccesses ETV
vector 181 DatabaseNetwork.user[11] ReadAccesses ETV
vector 182 DatabaseNetwork.user[44] WriteAccesses ETV
vector 183 DatabaseNetwork.user[16] WriteAccesses ETV
vector 184 DatabaseNetwork.user[38] WriteAccesses ETV
vector 185 DatabaseNetwork.user[1] WriteAccesses ETV
vector 186 DatabaseNetwork.user[5] WriteAccesses ETV
vector 187 DatabaseNetwork.user[8] WriteAccesses ETV
vector 188 DatabaseNetwork.user[47] WriteAccesses ETV
vector 189 DatabaseNetwork.user[39] WriteAccesses ETV
vector 190 DatabaseNetwork.user[36] WriteAccesses ETV
vector 191 DatabaseNetwork.user[32] WriteAccesses ETV
vector 192 DatabaseNetwork.user[43] WriteAccesses ETV
vector 193 DatabaseNetwork.user[46] WriteAccesses ETV
vector 194 DatabaseNetwork.user[4] WriteAccesses ETV
vector 195 DatabaseNetwork.user[29] WriteAccesses ETV
vector 196 DatabaseNetwork.user[27] WriteAccesses ETV
vector 197 DatabaseNetwork.user[7] WriteAccesses ETV
vector 198 DatabaseNetwork.user[49] WriteAccesses ETV
vector 199 DatabaseNetwork.user[12] WriteAccesses ETV
0	11583 20787 0 99917 0 9985.036654437139 501 0.055328732896875 131.35346484747 10000.037594165 416922.81646103
1	32370 21246 0 99973 0 9991.863566646104 510 0.0093349850130101 105.73792872625 10002.946031039 378541.88858546
2	53616 20814 0 99969 0 9990.822778174567 501 0.006671636079354 122.43301383314 10000.805167745 402105.36602482
3	74430 22506 0 99979 0 9992.527773103554 541 0.024076723172288 95.789422137469 10029.520994442 356208.7264057
4	96936 20841 0 99851 0 9978.655653803697 501 0.0081008638654811 124.05084326256 10090.195201732 384808.9816491
5	117777 18453 0 99647 0 9958.019060753534 444 0.12104254734967 184.64871073723 10002.475158573 467696.18023661
6	136230 22118 0 99541 0 9946.646254905848 532 0.052575016523552 148.48838426469 10026.20537745 362276.40606197
7	158348 21098 0 99817 0 9976.335272497677 508 0.017334165460247 125.11895387978 10015.381643687 377268.41509959
8	179446 21044 0 99953 0 9988.400311217515 506 0.028776105048933 146.82334337571 10003.399905324 384248.87083549
9	200490 20832 0 99845 0 9978.502135748632 501 0.070646214778403 131.82110323449 10033.888456107 394231.57386405
10	221322 20651 0 100021 0 9998.700818027411 485 0.0011807376732707 143.2684264535 10000.180201406 400283.0250502
11	241973 22416 0 100011 0 9996.248359614293 527 0.039588033028555 103.41705510005 10005.92419518 378940.5194946
12	264389 20592 0 99761 0 9971.165101055764 484 0.03159204245686 180.6853722207 10049.594896703 451635.33558989
13	284981 19484 0 100033 0 9999.859666740273 458 0.018003129142311 121.32245550146 10030.218927294 441841.68809235
14	304465 22946 0 99733 0 9968.204102723239 539 0.090056077923265 111.36785385898 10020.01141949 369495.58976677
15	327411 22422 0 99509 0 9942.951016555797 526 0.0024053410641415 118.39318054545 10004.075669714 355711.67485233
16	349833 22133 0 99905 0 9984.303542605999 519 0.024808010732053 136.10814655659 10017.883725901 382139.9664173
17	371966 22561 0 99925 0 9985.706073942231 531 0.0024718362899742 100.60732406091 10031.218624198 347044.68343013
18	394527 20138 0 99877 0 9981.332755184212 474 0.014479967685213 123.23258523283 10014.32167308 389997.24882745
19	414665 19804 0 99909 0 9984.479993601085 466 0.019720863885406 135.87269473336 10007.248997399 429205.84874149
20	434469 20609 0 99861 0 9979.308258007333 484 0.084756971381987 124.13377350533 10006.551155196 403341.79481949
21	455078 22385 0 100003 0 9995.529940185233 526 0.013210087399531 120.8070043476 10021.786356884 367643.61354534
22	477463 21895 0 99835 0 9977.011483812763 515 0.016065870217381 99.921665086328 10011.093563285 355461.66273291
23	499358 21325 0 99949 0 9987.592366997662 501 0.010646453215402 150.69032973259 10001.774092081 394678.45457317
24	520683 21334 0 99425 0 9931.93430331136 500 0.062957440108611 111.5976432057 10029.01011942 393303.45348033
25	542017 20767 0 99749 0 9969.338155529664 488 0.014248968879297 134.84428963037 10008.010360855 418640.33743576
26	562784 21838 0 99721 0 9964.54080303598 514 0.075433364218743 141.98353102258 10048.110152496 402392.41434784
27	584622 19000 0 100029 0 9999.47196144913 447 0.0094158989867141 114.16182013067 10008.847094362 416797.16864162
28	603622 22082 0 100009 0 9996.218954580985 519 0.025454928156919 147.92555417049 10009.037641334 400105.4764243
29	625704 19520 0 100017 0 9997.50851387198 459 0.0083763041967624 162.50255515238 10018.237233904 450597.73038747
30	645224 21359 0 99985 0 9993.677473794844 502 0.049590159850486 145.77784375094 10023.912639235 402675.50081611
31	666583 19516 0 100025 0 9999.188190008633 458 0.086364465121311 155.02686225897 10001.856939014 455519.84516499
32	686099 21511 0 99801 0 9975.497082504346 505 0.0061519964086966 126.39687114564 10004.794336606 423557.35617291
33	707610 23163 0 99621 0 9954.389128543133 544 0.003792067039462 103.00804123098 10003.818789566 360469.44575044
34	730773 21665 0 99945 0 9986.860040498606 509 0.0096091145687741 117.14607531913 10007.403124155 374907.18788134
35	752438 21596 0 99977 0 9992.485521528041 507 0.10003682773786 136.91679712405 10011.171864499 410433.46640901
36	774034 20476 0 99697 0 9962.292076961249 481 0.019523854290852 123.03327887587 10075.882761805 413875.58331683
37	794510 22490 0 99935 0 9986.209857312786 529 0.063184527032 101.4057904876 10051.680401222 386713.62558751
38	817000 22435 0 99997 0 9995.38919539722 526 0.024594558216665 109.47376666667 10002.773926619 380340.57775517
39	839435 21486 0 99957 0 9989.270747438049 504 0.031937249492462 131.04437044554 10004.869501746 391092.98852232
40	860921 20456 0 99899 0 9984.141077251133 480 0.042171815120014 150.99100752428 10040.192416105 408295.37602832
41	881377 20088 0 99873 0 9981.051361264629 472 0.0077673227493106 126.06590635187 10007.052720562 396332.19438937
42	901465 21872 0 99813 0 9975.881412917333 514 0.052546083556771 145.31976887497 10085.620653138 418602.54463308
43	923337 20954 0 99803 0 9975.583742491894 492 0.056691179743236 124.0443687352 10038.108341455 401012.5685678
44	944291 19714 0 99569 0 9950.138591513122 463 0.0097342423724849 133.99978953529 10023.181868765 428201.91295236
45	964005 22726 0 99921 0 9985.428884117157 534 0.0010222690663683 174.45314655256 10030.080508533 407104.28490193
46	986731 21257 0 99889 0 9983.155814498831 499 0.02086641155883 208.1880980109 10027.023587405 435108.12572167
47	1007988 23175 0 99989 0 9993.883082383209 544 0.030346086546681 84.403177319603 10012.146037203 342431.41582316
48	1031163 20920 0 99885 0 9981.994017286144 491 0.071105986751129 110.25698313087 10051.536610444 393964.30220401
49	1052083 21215 0 100001 0 9995.509866510202 498 0.0058600508818419 131.41728473755 10042.038378848 371421.07521104
50	1073298 11435 1 99969 0.525364736932 9990.822778174567 399 1 1 399 399
51	1084733 21975 4 99972 0.625364736932 9990.922778174567 500 0.099999999998545 0.17207316456393 50.122929393178 5.0323667756749
52	1106708 11669 5 99813 1.350304353086 9975.881412917333 408 1 1 408 408
53	1118377 22569 8 99816 1.450304353086 9975.981412917333 513 0.099999999998545 0.1523566694832 51.381339718019 5.149849181545
54	1140946 11530 9 99777 1.65992651012 9972.78480822044 402 1 1 402 402
55	1152476 23141 12 100000 1.75992651012 9995.48919539722 525 0.099999999998545 0.2124149707106 52.778746067529 5.3300715557099
56	1175617 11326 13 99627 2.030267873818 9954.743216279198 395 1 1 395 395
57	1186943 21989 16 99892 2.130267873818 9983.255814498831 498 0.099999999998545 0.18701772791246 49.96745697981 5.0243206406102
58	1208932 12024 17 99921 2.470338621905 9985.428884117157 420 1 1 420 420
59	1220956 11759 19 99509 2.555543458514 9942.951016555797 410 1 1 410 410
60	1232715 23398 22 99924 2.570338621905 9985.528884117157 533 0.099999999998545 0.1999319436527 53.614577484957 5.4186953272067
61	1256113 23162 24 99512 2.655543458514 9943.051016555797 525 0.099999999998545 0.18502095043732 52.777788510827 5.3239091781139
62	1279275 11595 25 99885 2.72005967253 9981.994017286144 404 1 1 404 404
63	1290870 21578 28 99888 2.82005967253 9982.094017286144 490 0.099999999998545 0.1892036905283 49.256284868497 4.9701808703686
64	1312448 2810 29 99425 2.890805482373 9931.93430331136 98 1 1 98 98
65	1315258 22030 32 99428 2.990805482373 9932.03430331136 499 0.099999999998545 0.19483400490026 50.160177720598 5.0618251091811
66	1337288 2884 33 98791 3.354807823798 9871.333029858884 101 1 1 101 101
67	1340172 23192 36 100016 3.454807823798 9996.348359614293 526 0.099999999998545 0.19434540529619 52.984135267056 5.3645479157688
68	1363364 11928 37 99935 3.895607906725 9986.209857312786 417 1 1 417 417
69	1375292 23198 40 99942 3.995607906725 9986.309857312786 528 0.099999999998545 0.15117453737366 52.869592979508 5.2968766681877
70	1398490 12398 41 99989 4.011186056206 9993.883082383209 433 1 1 433 433
71	1410888 11968 43 100009 4.077602339223 9996.218954580985 418 1 1 418 418
72	1422856 11524 45 99973 4.093357685528 9991.863566646104 401 1 1 401 401
73	1434380 23938 48 99992 4.111186056206 9993.983082383209 543 0.099999999998545 0.16597367035206 54.463608981158 5.4707505386242
74	1458318 22783 50 100014 4.177602339223 9996.318954580985 518 0.099999999998545 0.19429890525203 52.257563706241 5.3047423236439
75	1481101 22474 52 99976 4.193357685528 9991.963566646104 509 0.099999999998545 0.17075056750309 51.130717199593 5.1473751466286
76	1503575 11201 53 99761 4.579425894643 9971.165101055764 392 1 1 392 392
77	1514776 21230 56 99764 4.679425894643 9971.265101055764 483 0.099999999998545 0.16935135002859 48.458881665003 4.870234611693
78	1536006 2437 63 98841 5.981550600929 9876.425148272878 85 1 1 85 85
79	1538443 20173 68 100028 6.081550600929 9999.288190008633 457 0.099999999998545 0.16479988186893 45.842923765036 4.6062171178151
80	1558616 2665 69 99163 6.207479312421 9905.32231344504 93 1 1 93 93
81	1561281 20830 72 99880 6.307479312421 9981.432755184212 473 0.099999999998545 0.19683334857291 47.396833348569 4.7587433671097
82	1582111 10867 73 99803 6.789862856486 9975.583742491894 379 1 1 379 379
83	1592978 21639 76 99808 6.889862856486 9975.683742491894 491 0.099999999998545 0.16214728836712 49.192006643937 4.9331551953536
84	1614617 10716 77 99873 7.048490079721 9981.051361264629 374 1 1 374 374
85	1625333 11720 79 99905 7.123634948101 9984.303542605999 408 1 1 408 408
86	1637053 20764 82 99876 7.148490079721 9981.151361264629 471 0.099999999998545 0.17212698978256 47.241648699898 4.7460095177048
87	1657817 22850 84 99908 7.223634948101 9984.403542605999 518 0.099999999998545 0.19730542535899 51.939906758512 5.2187434770237
88	1680667 2982 85 99845 7.729033380436 9978.502135748632 104 1 1 104 104
89	1683649 21986 88 99848 7.829033380436 9978.602135748632 500 0.099999999998545 0.19366955594523 50.218921100429 5.0605575452647
90	1705635 11253 89 100021 8.019548466481 9998.700818027411 393 1 1 393 393
91	1716888 21339 92 100024 8.119548466481 9998.800818027411 484 0.099999999998545 0.10000000000036 48.399999999993 4.8399999999986
92	1738227 2663 97 99897 10.461602504546 9984.041612172698 93 1 1 93 93
93	1740890 22293 104 99982 10.561602504546 9992.585521528041 506 0.099999999998545 0.18563406716794 50.777200979733 5.1075489998335
94	1763183 11818 111 99929 10.907230344359 9986.064283558618 412 1 1 412 412
95	1775001 22260 116 99956 11.007230344359 9988.500311217515 505 0.099999999998545 0.13659431033011 50.536594310339 5.0586580056163
96	1797261 10460 117 99569 11.176603522625 9950.138591513122 365 1 1 365 365
97	1807721 20333 120 99572 11.276603522625 9950.238591513122 462 0.099999999998545 0.16562096302187 46.34979566994 4.6572039073836
98	1828054 11926 121 99541 11.430006362468 9946.646254905848 416 1 1 416 416
99	1839980 2828 123 99073 11.453839792544 9897.949126627161 99 1 1 99 99
100	1842808 23937 126 99544 11.530006362468 9946.746254905848 531 0.099999999998545 0.17481001318902 53.235616859305 5.3459658488589
101	1866745 22495 128 99920 11.553839792544 9985.136654437139 500 0.099999999998545 0.19569973682701 50.283372347351 5.078271878201
102	1889240 11792 133 99817 13.262026102764 9976.335272497677 398 1 1 398 398
103	1901032 12578 135 99925 13.278600377286 9985.706073942231 425 1 1 425 425
104	1913610 22877 138 99820 13.362026102764 9976.435272497677 507 0.099999999998545 0.11947113707265 50.738514576641 5.078444693098
105	1936487 23775 140 99928 13.378600377286 9985.806073942231 530 0.099999999998545 0.17508725184598 53.152937041876 5.3385933643347
106	1960262 12340 141 99717 13.633735666083 9964.3224254872 416 1 1 416 416
107	1972602 12012 143 100001 13.635828752389 9995.509866510202 405 1 1 405 405
108	1984614 22872 146 99948 13.733735666083 9986.960040498606 508 0.099999999998545 0.10530799448225 50.805307994486 5.0810897737026
109	2007486 22434 148 100006 13.735828752389 9995.609866510202 497 0.099999999998545 0.12933029513624 49.729330295119 4.9767263252367
110	2029920 11585 149 99749 13.805472967174 9969.338155529664 391 1 1 391 391
111	2041505 21919 152 99756 13.905472967174 9969.438155529664 487 0.099999999998545 0.12168876902433 48.721688769014 4.8748081565045
112	2063424 2666 153 99109 14.073895784098 9900.345055477239 90 1 1 90 90
113	2066090 21605 156 99904 14.173895784098 9984.241077251133 479 0.099999999998545 0.13559019199965 47.935590191983 4.7983847001632
114	2087695 12160 157 99721 14.413579226361 9964.54080303598 411 1 1 411 411
115	2099855 23051 160 99724 14.513579226361 9964.64080303598 513 0.099999999998545 0.17479702585797 51.540246053147 5.1921707800907
116	2122906 12100 161 99821 15.063978170199 9976.60843012854 409 1 1 409 409
117	2135006 23120 164 99840 15.163978170199 9977.111483812763 514 0.099999999998545 0.18528611978172 51.672715607208 5.2112921825773
118	2158126 13112 169 99621 15.802296588066 9954.389128543133 442 1 1 442 442
119	2171238 24483 172 99624 15.902296588066 9954.489128543133 543 0.099999999998545 0.10130984883608 54.30130984884 5.4302636854719
120	2195721 11084 173 99851 15.955158478006 9978.655653803697 373 1 1 373 373
121	2206805 22558 176 99856 16.055158478006 9978.755653803697 500 0.099999999998545 0.19963894027751 50.264419218189 5.0763979703883
122	2229363 11935 181 99265 17.138460749375 9916.471317477409 401 1 1 401 401
123	2241298 10288 193 100029 17.676324608463 9999.47196144913 348 1 1 348 348
124	2251586 20081 196 100032 17.776324608463 9999.57196144913 446 0.099999999998545 0.16202017046362 44.662020170467 4.4762505356378
125	2271667 13026 213 99733 19.313347302846 9968.204102723239 439 1 1 439 439
126	2284693 11283 215 99861 19.411445162826 9979.308258007333 380 1 1 380 380
127	2295976 24240 218 99736 19.413347302846 9968.304102723239 538 0.099999999998545 0.19255572358702 54.130903120404 5.4672193238241
128	2320216 21774 220 99864 19.511445162826 9979.408258007333 483 0.099999999998545 0.18766134358611 48.547052959943 4.8961794637389
129	2341990 3052 229 99397 19.94621423757 9929.52804883816 103 1 1 103 103
130	2345042 11109 235 99909 20.033581114353 9984.479993601085 375 1 1 375 375
131	2356151 20892 240 99912 20.133581114353 9984.579993601085 465 0.099999999998545 0.19542866124095 46.749205278447 4.7194273035148
132	2377043 11062 257 99949 22.978710234746 9987.592366997662 373 1 1 373 373
133	2388105 22561 260 99952 23.078710234746 9987.692366997662 500 0.099999999998545 0.1949214096212 50.201786372681 5.0545123988044
134	2410666 2461 269 99225 24.003778731456 9912.534389006432 83 1 1 83 83
135	2413127 20564 272 100036 24.103778731456 9999.959666740273 457 0.099999999998545 0.19837985900813 45.921482934311 4.6320824873612
136	2433691 11566 281 99899 25.007731921145 9984.141077251133 389 1 1 389 389
137	2445257 11104 285 100017 25.44176628254 9997.50851387198 375 1 1 375 375
138	2456361 20593 288 100020 25.54176628254 9997.60851387198 458 0.099999999998545 0.19871659147975 46.138830351966 4.6770511967905
139	2476954 11872 289 99917 26.265915309525 9985.036654437139 401 1 1 401 401
140	2488826 11092 309 100033 30.307693772501 9999.859666740273 374 1 1 374 374
141	2499918 11251 313 99877 30.42353663094 9981.332755184212 380 1 1 380 380
142	2511169 11634 321 99985 30.773545855284 9993.677473794844 392 1 1 392 392
143	2522803 22575 324 99988 30.873545855284 9993.777473794844 501 0.099999999998545 0.18553936216449 50.556078879599 5.1297061105427
144	2545378 2722 329 99945 31.587844100304 9986.860040498606 92 1 1 92 92
145	2548100 11747 337 99645 32.570644823218 9958.01700970974 396 1 1 396 396
146	2559847 3109 339 99683 32.572651683373 9961.023329690796 105 1 1 105 105
147	2562956 2560 341 99767 32.610085038719 9971.654972906296 86 1 1 86 86
148	2565516 2900 359 99865 34.099901882417 9980.352006443465 98 1 1 98 98
149	2568416 23654 364 100008 34.199901882417 9995.629940185233 525 0.099999999998545 0.19546673893797 53.008484717908 5.3849309026404
150	2592070 2931 365 99589 34.406190897329 9952.009609859383 99 1 1 99 99
151	2595001 2848 369 99141 34.519897944066 9904.099084511959 96 1 1 96 96
152	2597849 2668 389 97769 37.173276084718 9771.462239210957 90 1 1 90 90
153	2600517 11560 393 99697 37.489107734394 9962.292076961249 390 1 1 390 390
154	2612077 21624 396 99700 37.589107734394 9962.392076961249 480 0.099999999998545 0.19324010510718 48.277101565633 4.875917185938
155	2633701 3409 403 97813 37.829504992818 9775.517987563227 115 1 1 115 115
156	2637110 12153 409 99801 38.479588623406 9975.497082504346 409 1 1 409 409
157	2649263 22763 412 99806 38.579588623406 9975.597082504346 504 0.099999999998545 0.19581310120338 50.861931835591 5.1647574098641
158	2672026 2967 419 98081 39.237857832681 9802.573251083866 100 1 1 100 100
159	2674993 12670 461 100003 45.384918785011 9995.529940185233 427 1 1 427 427
160	2687663 3348 481 98749 47.816656517642 9865.689094173872 113 1 1 113 113
161	2691011 2712 505 98637 51.184326171849 9853.633064270093 91 1 1 91 91
162	2693723 3283 529 99561 53.520088966226 9949.446511817361 111 1 1 111 111
163	2697006 12945 537 99961 53.63036520913 9989.486276631219 436 1 1 436 436
164	2709951 24377 544 99984 53.73036520913 9992.627773103554 540 0.099999999998545 0.18056657514899 54.120165906409 5.4317769502538
165	2734328 2879 573 99441 56.401739618675 9932.786775443156 97 1 1 97 97
166	2737207 3225 593 98329 57.455216447474 9827.067591136207 109 1 1 109 109
167	2740432 10878 607 99647 59.026887453549 9958.019060753534 367 1 1 367 367
168	2751310 20009 612 99652 59.126887453549 9958.119060753534 443 0.099999999998545 0.21549826024693 44.593878646929 4.5124289493004
169	2771319 3001 665 98101 63.564447383936 9804.58958946429 101 1 1 101 101
170	2774320 12263 669 99977 63.749507266294 9992.485521528041 413 1 1 413 413
171	2786583 11054 685 100025 64.757972511259 9999.188190008633 372 1 1 372 372
172	2797637 2999 693 99481 65.42794915419 9938.985806105693 101 1 1 101 101
173	2800636 3769 739 99329 69.114494846909 9922.878908631249 127 1 1 127 127
174	2804405 11998 745 99957 69.887585606519 9989.270747438049 404 1 1 404 404
175	2816403 22694 748 99960 69.987585606519 9989.370747438049 503 0.099999999998545 0.17085850282092 50.467020431158 5.0734863060172
176	2839097 3086 933 99979 88.751641288944 9992.527773103554 104 1 1 104 104
177	2842183 3116 999 99353 94.72054276687 9925.25953841181 105 1 1 105 105
178	2845299 3415 1013 99477 96.439936807861 9937.619566561221 115 1 1 115 115
179	2848714 3028 1065 99677 100.709042119659 9960.481128991454 102 1 1 102 102