file 5982303 1767628886                                         
version 3
run Lognormal-65-20260105-17:01:26-25149
attr configname Lognormal
attr datetime 20260105-17:01:26
attr datetimef 20260105-170126
attr experiment Lognormal
attr inifile omnetpp.ini
attr iterationvars "$N=100, $p=0.8"
attr iterationvarsd N=100/p=0.8
attr iterationvarsf N=100,p=0.8-
attr measurement "$N=100, $p=0.8"
attr network progetto.DatabaseNetwork
attr processid 25149
attr repetition 0
attr replication #0
attr resultdir results
attr runnumber 65
attr seedset 0
itervar N 100
itervar p 0.8
config description "Lognormal distribution (hotspots) - varia N e p"
config *.user[*].tableDistribution "\"lognormal\""
config *.user[*].lognormalM 1.5
config *.user[*].lognormalS 1.0
config *.numUsers 100
config *.user[*].readProbability 0.8
config network progetto.DatabaseNetwork
config sim-time-limit 10000s
config cpu-time-limit 3600s
config repeat 5
config seed-set 0
config output-vector-file "results/Lognormal-$N=100, $p=0.8-0.vec"
config output-scalar-file "results/Lognormal-$N=100, $p=0.8-0.sca"
config result-dir results
config **.vector-recording true
config **.scalar-recording true
config *.numTables 20
config *.user[*].lambda 0.05
config *.user[*].serviceTime 0.1s

vector 0 DatabaseNetwork.user[0] AccessInterval ETV
vector 1 DatabaseNetwork.user[1] AccessInterval ETV
vector 2 DatabaseNetwork.user[2] AccessInterval ETV
vector 3 DatabaseNetwork.user[3] AccessInterval ETV
vector 4 DatabaseNetwork.user[4] AccessInterval ETV
vector 5 DatabaseNetwork.user[5] AccessInterval ETV
vector 6 DatabaseNetwork.user[6] AccessInterval ETV
vector 7 DatabaseNetwork.user[7] AccessInterval ETV
vector 8 DatabaseNetwork.user[8] AccessInterval ETV
vector 9 DatabaseNetwork.user[9] AccessInterval ETV
vector 10 DatabaseNetwork.user[10] AccessInterval ETV
vector 11 DatabaseNetwork.user[11] AccessInterval ETV
vector 12 DatabaseNetwork.user[12] AccessInterval ETV
vector 13 DatabaseNetwork.user[13] AccessInterval ETV
vector 14 DatabaseNetwork.user[14] AccessInterval ETV
vector 15 DatabaseNetwork.user[15] AccessInterval ETV
vector 16 DatabaseNetwork.user[16] AccessInterval ETV
vector 17 DatabaseNetwork.user[17] AccessInterval ETV
vector 18 DatabaseNetwork.user[18] AccessInterval ETV
vector 19 DatabaseNetwork.user[19] AccessInterval ETV
vector 20 DatabaseNetwork.user[20] AccessInterval ETV
vector 21 DatabaseNetwork.user[21] AccessInterval ETV
vector 22 DatabaseNetwork.user[22] AccessInterval ETV
vector 23 DatabaseNetwork.user[23] AccessInterval ETV
vector 24 DatabaseNetwork.user[24] AccessInterval ETV
vector 25 DatabaseNetwork.user[25] AccessInterval ETV
vector 26 DatabaseNetwork.user[26] AccessInterval ETV
vector 27 DatabaseNetwork.user[27] AccessInterval ETV
vector 28 DatabaseNetwork.user[28] AccessInterval ETV
vector 29 DatabaseNetwork.user[29] AccessInterval ETV
vector 30 DatabaseNetwork.user[30] AccessInterval ETV
vector 31 DatabaseNetwork.user[31] AccessInterval ETV
vector 32 DatabaseNetwork.user[32] AccessInterval ETV
vector 33 DatabaseNetwork.user[33] AccessInterval ETV
vector 34 DatabaseNetwork.user[34] AccessInterval ETV
vector 35 DatabaseNetwork.user[35] AccessInterval ETV
vector 36 DatabaseNetwork.user[36] AccessInterval ETV
vector 37 DatabaseNetwork.user[37] AccessInterval ETV
vector 38 DatabaseNetwork.user[38] AccessInterval ETV
vector 39 DatabaseNetwork.user[39] AccessInterval ETV
vector 40 DatabaseNetwork.user[40] AccessInterval ETV
vector 41 DatabaseNetwork.user[41] AccessInterval ETV
vector 42 DatabaseNetwork.user[42] AccessInterval ETV
vector 43 DatabaseNetwork.user[43] AccessInterval ETV
vector 44 DatabaseNetwork.user[44] AccessInterval ETV
vector 45 DatabaseNetwork.user[45] AccessInterval ETV
vector 46 DatabaseNetwork.user[46] AccessInterval ETV
vector 47 DatabaseNetwork.user[47] AccessInterval ETV
vector 48 DatabaseNetwork.user[48] AccessInterval ETV
vector 49 DatabaseNetwork.user[49] AccessInterval ETV
vector 50 DatabaseNetwork.user[50] AccessInterval ETV
vector 51 DatabaseNetwork.user[51] AccessInterval ETV
vector 52 DatabaseNetwork.user[52] AccessInterval ETV
vector 53 DatabaseNetwork.user[53] AccessInterval ETV
vector 54 DatabaseNetwork.user[54] AccessInterval ETV
vector 55 DatabaseNetwork.user[55] AccessInterval ETV
vector 56 DatabaseNetwork.user[56] AccessInterval ETV
vector 57 DatabaseNetwork.user[57] AccessInterval ETV
vector 58 DatabaseNetwork.user[58] AccessInterval ETV
vector 59 DatabaseNetwork.user[59] AccessInterval ETV
vector 60 DatabaseNetwork.user[60] AccessInterval ETV
vector 61 DatabaseNetwork.user[61] AccessInterval ETV
vector 62 DatabaseNetwork.user[62] AccessInterval ETV
vector 63 DatabaseNetwork.user[63] AccessInterval ETV
vector 64 DatabaseNetwork.user[64] AccessInterval ETV
vector 65 DatabaseNetwork.user[65] AccessInterval ETV
vector 66 DatabaseNetwork.user[66] AccessInterval ETV
vector 67 DatabaseNetwork.user[67] AccessInterval ETV
vector 68 DatabaseNetwork.user[68] AccessInterval ETV
vector 69 DatabaseNetwork.user[69] AccessInterval ETV
vector 70 DatabaseNetwork.user[70] AccessInterval ETV
vector 71 DatabaseNetwork.user[71] AccessInterval ETV
vector 72 DatabaseNetwork.user[72] AccessInterval ETV
vector 73 DatabaseNetwork.user[73] AccessInterval ETV
vector 74 DatabaseNetwork.user[74] AccessInterval ETV
vector 75 DatabaseNetwork.user[75] AccessInterval ETV
vector 76 DatabaseNetwork.user[76] AccessInterval ETV
vector 77 DatabaseNetwork.user[77] AccessInterval ETV
vector 78 DatabaseNetwork.user[78] AccessInterval ETV
vector 79 DatabaseNetwork.user[79] AccessInterval ETV
vector 80 DatabaseNetwork.user[80] AccessInterval ETV
vector 81 DatabaseNetwork.user[81] AccessInterval ETV
vector 82 DatabaseNetwork.user[82] AccessInterval ETV
vector 83 DatabaseNetwork.user[83] AccessInterval ETV
vector 84 DatabaseNetwork.user[84] AccessInterval ETV
vector 85 DatabaseNetwork.user[85] AccessInterval ETV
vector 86 DatabaseNetwork.user[86] AccessInterval ETV
vector 87 DatabaseNetwork.user[87] AccessInterval ETV
vector 88 DatabaseNetwork.user[88] AccessInterval ETV
vector 89 DatabaseNetwork.user[89] AccessInterval ETV
vector 90 DatabaseNetwork.user[90] AccessInterval ETV
vector 91 DatabaseNetwork.user[91] AccessInterval ETV
vector 92 DatabaseNetwork.user[92] AccessInterval ETV
vector 93 DatabaseNetwork.user[93] AccessInterval ETV
vector 94 DatabaseNetwork.user[94] AccessInterval ETV
vector 95 DatabaseNetwork.user[95] AccessInterval ETV
vector 96 DatabaseNetwork.user[96] AccessInterval ETV
vector 97 DatabaseNetwork.user[97] AccessInterval ETV
vector 98 DatabaseNetwork.user[98] AccessInterval ETV
vector 99 DatabaseNetwork.user[99] AccessInterval ETV
vector 100 DatabaseNetwork.user[68] ReadAccesses ETV
vector 101 DatabaseNetwork.user[32] ReadAccesses ETV
vector 102 DatabaseNetwork.user[68] WaitTime ETV
vector 103 DatabaseNetwork.user[32] WaitTime ETV
vector 104 DatabaseNetwork.user[15] ReadAccesses ETV
vector 105 DatabaseNetwork.user[86] ReadAccesses ETV
vector 106 DatabaseNetwork.user[15] WaitTime ETV
vector 107 DatabaseNetwork.user[86] WaitTime ETV
vector 108 DatabaseNetwork.user[28] ReadAccesses ETV
vector 109 DatabaseNetwork.user[28] WaitTime ETV
vector 110 DatabaseNetwork.user[30] ReadAccesses ETV
vector 111 DatabaseNetwork.user[30] WaitTime ETV
vector 112 DatabaseNetwork.user[85] ReadAccesses ETV
vector 113 DatabaseNetwork.user[85] WaitTime ETV
vector 114 DatabaseNetwork.user[57] ReadAccesses ETV
vector 115 DatabaseNetwork.user[57] WaitTime ETV
vector 116 DatabaseNetwork.user[48] ReadAccesses ETV
vector 117 DatabaseNetwork.user[48] WaitTime ETV
vector 118 DatabaseNetwork.user[94] ReadAccesses ETV
vector 119 DatabaseNetwork.user[94] WaitTime ETV
vector 120 DatabaseNetwork.user[67] ReadAccesses ETV
vector 121 DatabaseNetwork.user[67] WaitTime ETV
vector 122 DatabaseNetwork.user[37] ReadAccesses ETV
vector 123 DatabaseNetwork.user[52] ReadAccesses ETV
vector 124 DatabaseNetwork.user[37] WaitTime ETV
vector 125 DatabaseNetwork.user[52] WaitTime ETV
vector 126 DatabaseNetwork.user[71] ReadAccesses ETV
vector 127 DatabaseNetwork.user[71] WaitTime ETV
vector 128 DatabaseNetwork.user[91] ReadAccesses ETV
vector 129 DatabaseNetwork.user[91] WaitTime ETV
vector 130 DatabaseNetwork.user[61] ReadAccesses ETV
vector 131 DatabaseNetwork.user[61] WaitTime ETV
vector 132 DatabaseNetwork.user[92] ReadAccesses ETV
vector 133 DatabaseNetwork.user[92] WaitTime ETV
vector 134 DatabaseNetwork.user[65] ReadAccesses ETV
vector 135 DatabaseNetwork.user[65] WaitTime ETV
vector 136 DatabaseNetwork.user[73] ReadAccesses ETV
vector 137 DatabaseNetwork.user[73] WaitTime ETV
vector 138 DatabaseNetwork.user[60] WriteAccesses ETV
vector 139 DatabaseNetwork.user[60] WaitTime ETV
vector 140 DatabaseNetwork.user[17] ReadAccesses ETV
vector 141 DatabaseNetwork.user[17] WaitTime ETV
vector 142 DatabaseNetwork.user[13] ReadAccesses ETV
vector 143 DatabaseNetwork.user[13] WaitTime ETV
vector 144 DatabaseNetwork.user[96] ReadAccesses ETV
vector 145 DatabaseNetwork.user[96] WaitTime ETV
vector 146 DatabaseNetwork.user[69] ReadAccesses ETV
vector 147 DatabaseNetwork.user[99] ReadAccesses ETV
vector 148 DatabaseNetwork.user[69] WaitTime ETV
vector 149 DatabaseNetwork.user[99] WaitTime ETV
vector 150 DatabaseNetwork.user[29] ReadAccesses ETV
vector 151 DatabaseNetwork.user[29] WaitTime ETV
vector 152 DatabaseNetwork.user[93] WriteAccesses ETV
vector 153 DatabaseNetwork.user[80] ReadAccesses ETV
vector 154 DatabaseNetwork.user[93] WaitTime ETV
vector 155 DatabaseNetwork.user[80] WaitTime ETV
vector 156 DatabaseNetwork.user[98] ReadAccesses ETV
vector 157 DatabaseNetwork.user[98] WaitTime ETV
vector 158 DatabaseNetwork.user[33] WriteAccesses ETV
vector 159 DatabaseNetwork.user[33] WaitTime ETV
vector 160 DatabaseNetwork.user[18] WriteAccesses ETV
vector 161 DatabaseNetwork.user[11] ReadAccesses ETV
vector 162 DatabaseNetwork.user[75] ReadAccesses ETV
vector 163 DatabaseNetwork.user[18] WaitTime ETV
vector 164 DatabaseNetwork.user[11] WaitTime ETV
vector 165 DatabaseNetwork.user[75] WaitTime ETV
vector 166 DatabaseNetwork.user[25] ReadAccesses ETV
vector 167 DatabaseNetwork.user[25] WaitTime ETV
vector 168 DatabaseNetwork.user[58] ReadAccesses ETV
vector 169 DatabaseNetwork.user[58] WaitTime ETV
vector 170 DatabaseNetwork.user[8] ReadAccesses ETV
vector 171 DatabaseNetwork.user[8] WaitTime ETV
vector 172 DatabaseNetwork.user[82] ReadAccesses ETV
vector 173 DatabaseNetwork.user[12] ReadAccesses ETV
vector 174 DatabaseNetwork.user[82] WaitTime ETV
vector 175 DatabaseNetwork.user[12] WaitTime ETV
vector 176 DatabaseNetwork.user[79] ReadAccesses ETV
vector 177 DatabaseNetwork.user[79] WaitTime ETV
vector 178 DatabaseNetwork.user[64] ReadAccesses ETV
vector 179 DatabaseNetwork.user[64] WaitTime ETV
vector 180 DatabaseNetwork.user[44] ReadAccesses ETV
vector 181 DatabaseNetwork.user[44] WaitTime ETV
vector 182 DatabaseNetwork.user[60] ReadAccesses ETV
vector 183 DatabaseNetwork.user[59] WriteAccesses ETV
vector 184 DatabaseNetwork.user[41] ReadAccesses ETV
vector 185 DatabaseNetwork.user[59] WaitTime ETV
vector 186 DatabaseNetwork.user[41] WaitTime ETV
vector 187 DatabaseNetwork.user[19] WriteAccesses ETV
vector 188 DatabaseNetwork.user[23] WriteAccesses ETV
vector 189 DatabaseNetwork.user[19] WaitTime ETV
vector 190 DatabaseNetwork.user[23] WaitTime ETV
vector 191 DatabaseNetwork.user[79] WriteAccesses ETV
vector 192 DatabaseNetwork.user[45] ReadAccesses ETV
vector 193 DatabaseNetwork.user[56] ReadAccesses ETV
vector 194 DatabaseNetwork.user[45] WaitTime ETV
vector 195 DatabaseNetwork.user[56] WaitTime ETV
vector 196 DatabaseNetwork.user[37] WriteAccesses ETV
vector 197 DatabaseNetwork.user[22] WriteAccesses ETV
vector 198 DatabaseNetwork.user[22] WaitTime ETV
vector 199 DatabaseNetwork.user[53] ReadAccesses ETV
vector 200 DatabaseNetwork.user[53] WaitTime ETV
vector 201 DatabaseNetwork.user[6] ReadAccesses ETV
vector 202 DatabaseNetwork.user[6] WaitTime ETV
vector 203 DatabaseNetwork.user[0] ReadAccesses ETV
vector 204 DatabaseNetwork.user[0] WaitTime ETV
vector 205 DatabaseNetwork.user[24] ReadAccesses ETV
vector 206 DatabaseNetwork.user[66] ReadAccesses ETV
vector 207 DatabaseNetwork.user[24] WaitTime ETV
vector 208 DatabaseNetwork.user[66] WaitTime ETV
vector 209 DatabaseNetwork.user[67] WriteAccesses ETV
vector 210 DatabaseNetwork.user[51] ReadAccesses ETV
vector 211 DatabaseNetwork.user[51] WaitTime ETV
vector 212 DatabaseNetwork.user[1] ReadAccesses ETV
vector 213 DatabaseNetwork.user[1] WaitTime ETV
vector 214 DatabaseNetwork.user[4] WriteAccesses ETV
vector 215 DatabaseNetwork.user[4] WaitTime ETV
vector 216 DatabaseNetwork.user[97] ReadAccesses ETV
vector 217 DatabaseNetwork.user[97] WaitTime ETV
vector 218 DatabaseNetwork.user[59] ReadAccesses ETV
vector 219 DatabaseNetwork.user[72] ReadAccesses ETV
vector 220 DatabaseNetwork.user[81] ReadAccesses ETV
vector 221 DatabaseNetwork.user[72] WaitTime ETV
vector 222 DatabaseNetwork.user[81] WaitTime ETV
vector 223 DatabaseNetwork.user[74] WriteAccesses ETV
vector 224 DatabaseNetwork.user[70] ReadAccesses ETV
vector 225 DatabaseNetwork.user[74] WaitTime ETV
vector 226 DatabaseNetwork.user[70] WaitTime ETV
vector 227 DatabaseNetwork.user[9] ReadAccesses ETV
vector 228 DatabaseNetwork.user[9] WaitTime ETV
vector 229 DatabaseNetwork.user[93] ReadAccesses ETV
vector 230 DatabaseNetwork.user[22] ReadAccesses ETV
vector 231 DatabaseNetwork.user[50] WriteAccesses ETV
vector 232 DatabaseNetwork.user[68] WriteAccesses ETV
vector 233 DatabaseNetwork.user[50] WaitTime ETV
vector 234 DatabaseNetwork.user[24] WriteAccesses ETV
vector 235 DatabaseNetwork.user[10] ReadAccesses ETV
vector 236 DatabaseNetwork.user[10] WaitTime ETV
vector 237 DatabaseNetwork.user[31] ReadAccesses ETV
vector 238 DatabaseNetwork.user[31] WaitTime ETV
vector 239 DatabaseNetwork.user[89] ReadAccesses ETV
vector 240 DatabaseNetwork.user[89] WaitTime ETV
vector 241 DatabaseNetwork.user[19] ReadAccesses ETV
vector 242 DatabaseNetwork.user[88] ReadAccesses ETV
vector 243 DatabaseNetwork.user[88] WaitTime ETV
vector 244 DatabaseNetwork.user[90] ReadAccesses ETV
vector 245 DatabaseNetwork.user[90] WaitTime ETV
vector 246 DatabaseNetwork.user[9] WriteAccesses ETV
vector 247 DatabaseNetwork.user[47] ReadAccesses ETV
vector 248 DatabaseNetwork.user[47] WaitTime ETV
vector 249 DatabaseNetwork.user[78] ReadAccesses ETV
vector 250 DatabaseNetwork.user[78] WaitTime ETV
vector 251 DatabaseNetwork.user[84] ReadAccesses ETV
vector 252 DatabaseNetwork.user[57] WriteAccesses ETV
vector 253 DatabaseNetwork.user[84] WaitTime ETV
vector 254 DatabaseNetwork.user[0] WriteAccesses ETV
vector 255 DatabaseNetwork.user[30] WriteAccesses ETV
vector 256 DatabaseNetwork.user[47] WriteAccesses ETV
vector 257 DatabaseNetwork.user[41] WriteAccesses ETV
vector 258 DatabaseNetwork.user[2] ReadAccesses ETV
vector 259 DatabaseNetwork.user[2] WaitTime ETV
vector 260 DatabaseNetwork.user[49] ReadAccesses ETV
vector 261 DatabaseNetwork.user[49] WaitTime ETV
vector 262 DatabaseNetwork.user[8] WriteAccesses ETV
vector 263 DatabaseNetwork.user[48] WriteAccesses ETV
vector 264 DatabaseNetwork.user[63] ReadAccesses ETV
vector 265 DatabaseNetwork.user[63] WaitTime ETV
vector 266 DatabaseNetwork.user[95] ReadAccesses ETV
vector 267 DatabaseNetwork.user[95] WaitTime ETV
vector 268 DatabaseNetwork.user[55] ReadAccesses ETV
vector 269 DatabaseNetwork.user[55] WaitTime ETV
vector 270 DatabaseNetwork.user[62] ReadAccesses ETV
vector 271 DatabaseNetwork.user[62] WaitTime ETV
vector 272 DatabaseNetwork.user[36] ReadAccesses ETV
vector 273 DatabaseNetwork.user[36] WaitTime ETV
vector 274 DatabaseNetwork.user[46] ReadAccesses ETV
vector 275 DatabaseNetwork.user[46] WaitTime ETV
vector 276 DatabaseNetwork.user[20] ReadAccesses ETV
vector 277 DatabaseNetwork.user[20] WaitTime ETV
vector 278 DatabaseNetwork.user[33] ReadAccesses ETV
vector 279 DatabaseNetwork.user[42] ReadAccesses ETV
vector 280 DatabaseNetwork.user[42] WaitTime ETV
vector 281 DatabaseNetwork.user[43] ReadAccesses ETV
vector 282 DatabaseNetwork.user[43] WaitTime ETV
vector 283 DatabaseNetwork.user[29] WriteAccesses ETV
vector 284 DatabaseNetwork.user[21] ReadAccesses ETV
vector 285 DatabaseNetwork.user[21] WaitTime ETV
vector 286 DatabaseNetwork.user[1] WriteAccesses ETV
vector 287 DatabaseNetwork.user[91] WriteAccesses ETV
vector 288 DatabaseNetwork.user[50] ReadAccesses ETV
vector 289 DatabaseNetwork.user[4] ReadAccesses ETV
vector 290 DatabaseNetwork.user[34] ReadAccesses ETV
vector 291 DatabaseNetwork.user[34] WaitTime ETV
vector 292 DatabaseNetwork.user[56] WriteAccesses ETV
vector 293 DatabaseNetwork.user[27] ReadAccesses ETV
vector 294 DatabaseNetwork.user[27] WaitTime ETV
vector 295 DatabaseNetwork.user[3] ReadAccesses ETV
vector 296 DatabaseNetwork.user[3] WaitTime ETV
vector 297 DatabaseNetwork.user[7] ReadAccesses ETV
vector 298 DatabaseNetwork.user[69] WriteAccesses ETV
vector 299 DatabaseNetwork.user[7] WaitTime ETV
vector 300 DatabaseNetwork.user[5] ReadAccesses ETV
vector 301 DatabaseNetwork.user[5] WaitTime ETV
vector 302 DatabaseNetwork.user[38] ReadAccesses ETV
vector 303 DatabaseNetwork.user[39] ReadAccesses ETV
vector 304 DatabaseNetwork.user[38] WaitTime ETV
vector 305 DatabaseNetwork.user[39] WaitTime ETV
vector 306 DatabaseNetwork.user[13] WriteAccesses ETV
vector 307 DatabaseNetwork.user[74] ReadAccesses ETV
vector 308 DatabaseNetwork.user[14] ReadAccesses ETV
vector 309 DatabaseNetwork.user[14] WaitTime ETV
vector 310 DatabaseNetwork.user[11] WriteAccesses ETV
vector 311 DatabaseNetwork.user[96] WriteAccesses ETV
vector 312 DatabaseNetwork.user[99] WriteAccesses ETV
vector 313 DatabaseNetwork.user[83] ReadAccesses ETV
vector 314 DatabaseNetwork.user[77] ReadAccesses ETV
vector 315 DatabaseNetwork.user[83] WaitTime ETV
vector 316 DatabaseNetwork.user[77] WaitTime ETV
vector 317 DatabaseNetwork.user[3] WriteAccesses ETV
vector 318 DatabaseNetwork.user[77] WriteAccesses ETV
vector 319 DatabaseNetwork.user[23] ReadAccesses ETV
vector 320 DatabaseNetwork.user[78] WriteAccesses ETV
vector 321 DatabaseNetwork.user[26] WriteAccesses ETV
vector 322 DatabaseNetwork.user[26] WaitTime ETV
vector 323 DatabaseNetwork.user[21] WriteAccesses ETV
vector 324 DatabaseNetwork.user[86] WriteAccesses ETV
vector 325 DatabaseNetwork.user[49] WriteAccesses ETV
vector 326 DatabaseNetwork.user[61] WriteAccesses ETV
vector 327 DatabaseNetwork.user[2] WriteAccesses ETV
vector 328 DatabaseNetwork.user[10] WriteAccesses ETV
vector 329 DatabaseNetwork.user[76] ReadAccesses ETV
vector 330 DatabaseNetwork.user[76] WaitTime ETV
vector 331 DatabaseNetwork.user[54] ReadAccesses ETV
vector 332 DatabaseNetwork.user[54] WaitTime ETV
vector 333 DatabaseNetwork.user[66] WriteAccesses ETV
vector 334 DatabaseNetwork.user[14] WriteAccesses ETV
vector 335 DatabaseNetwork.user[26] ReadAccesses ETV
vector 336 DatabaseNetwork.user[35] ReadAccesses ETV
vector 337 DatabaseNetwork.user[35] WaitTime ETV
vector 338 DatabaseNetwork.user[16] ReadAccesses ETV
vector 339 DatabaseNetwork.user[16] WaitTime ETV
vector 340 DatabaseNetwork.user[97] WriteAccesses ETV
vector 341 DatabaseNetwork.user[81] WriteAccesses ETV
vector 342 DatabaseNetwork.user[87] ReadAccesses ETV
vector 343 DatabaseNetwork.user[87] WaitTime ETV
vector 344 DatabaseNetwork.user[83] WriteAccesses ETV
vector 345 DatabaseNetwork.user[71] WriteAccesses ETV
vector 346 DatabaseNetwork.user[53] WriteAccesses ETV
vector 347 DatabaseNetwork.user[70] WriteAccesses ETV
vector 348 DatabaseNetwork.user[16] WriteAccesses ETV
vector 349 DatabaseNetwork.user[40] WriteAccesses ETV
vector 350 DatabaseNetwork.user[40] WaitTime ETV
vector 351 DatabaseNetwork.user[80] WriteAccesses ETV
vector 352 DatabaseNetwork.user[88] WriteAccesses ETV
vector 353 DatabaseNetwork.user[18] ReadAccesses ETV
vector 354 DatabaseNetwork.user[58] WriteAccesses ETV
vector 355 DatabaseNetwork.user[39] WriteAccesses ETV
vector 356 DatabaseNetwork.user[52] WriteAccesses ETV
vector 357 DatabaseNetwork.user[75] WriteAccesses ETV
vector 358 DatabaseNetwork.user[82] WriteAccesses ETV
vector 359 DatabaseNetwork.user[12] WriteAccesses ETV
vector 360 DatabaseNetwork.user[17] WriteAccesses ETV
vector 361 DatabaseNetwork.user[76] WriteAccesses ETV
vector 362 DatabaseNetwork.user[98] WriteAccesses ETV
vector 363 DatabaseNetwork.user[90] WriteAccesses ETV
vector 364 DatabaseNetwork.user[32] WriteAccesses ETV
vector 365 DatabaseNetwork.user[72] WriteAccesses ETV
vector 366 DatabaseNetwork.user[6] WriteAccesses ETV
vector 367 DatabaseNetwork.user[34] WriteAccesses ETV
vector 368 DatabaseNetwork.user[31] WriteAccesses ETV
vector 369 DatabaseNetwork.user[63] WriteAccesses ETV
vector 370 DatabaseNetwork.user[25] WriteAccesses ETV
vector 371 DatabaseNetwork.user[40] ReadAccesses ETV
vector 372 DatabaseNetwork.user[51] WriteAccesses ETV
vector 373 DatabaseNetwork.user[87] WriteAccesses ETV
vector 374 DatabaseNetwork.user[38] WriteAccesses ETV
vector 375 DatabaseNetwork.user[35] WriteAccesses ETV
vector 376 DatabaseNetwork.user[94] WriteAccesses ETV
vector 377 DatabaseNetwork.user[20] WriteAccesses ETV
vector 378 DatabaseNetwork.user[45] WriteAccesses ETV
vector 379 DatabaseNetwork.user[54] WriteAccesses ETV
vector 380 DatabaseNetwork.user[7] WriteAccesses ETV
vector 381 DatabaseNetwork.user[73] WriteAccesses ETV
vector 382 DatabaseNetwork.user[62] WriteAccesses ETV
vector 383 DatabaseNetwork.user[84] WriteAccesses ETV
vector 384 DatabaseNetwork.user[44] WriteAccesses ETV
vector 385 DatabaseNetwork.user[43] WriteAccesses ETV
vector 386 DatabaseNetwork.user[85] WriteAccesses ETV
vector 387 DatabaseNetwork.user[46] WriteAccesses ETV
vector 388 DatabaseNetwork.user[95] WriteAccesses ETV
vector 389 DatabaseNetwork.user[28] WriteAccesses ETV
vector 390 DatabaseNetwork.user[5] WriteAccesses ETV
vector 391 DatabaseNetwork.user[36] WriteAccesses ETV
vector 392 DatabaseNetwork.user[42] WriteAccesses ETV
vector 393 DatabaseNetwork.user[15] WriteAccesses ETV
vector 394 DatabaseNetwork.user[64] WriteAccesses ETV
vector 395 DatabaseNetwork.user[89] WriteAccesses ETV
vector 396 DatabaseNetwork.user[92] WriteAccesses ETV
vector 397 DatabaseNetwork.user[65] WriteAccesses ETV
vector 398 DatabaseNetwork.user[27] WriteAccesses ETV
vector 399 DatabaseNetwork.user[55] WriteAccesses ETV
0	22141 18746 0 200317 0 9995.91643046619 445 0.018955172785946 157.52358849105 10036.871417359 477586.19620286
1	40887 19867 0 200193 0 9990.263027928196 472 0.016258842467936 105.21106700829 10021.482620248 387065.73254773
2	60754 23339 0 200365 0 9998.444267250809 553 0.025808505930946 113.33471113105 10031.332194139 365801.8728187
3	84093 19978 0 200075 0 9982.651784990192 474 0.00080127942807412 103.7541201011 10003.75251328 392116.5924777
4	104071 22351 0 200289 0 9994.403984855372 530 0.0012114359011624 122.13338309208 10008.583793243 357837.65967023
5	126422 21306 0 200345 0 9997.835741627501 505 0.020128621086892 142.81894274484 10039.644964402 417289.01556874
6	147728 20250 0 200321 0 9996.134054036401 481 0.088235969408291 132.64118934085 10006.37769783 410834.40009054
7	167978 21392 0 199809 0 9969.578904376311 508 0.02953687917037 101.60955507205 10002.198648789 381911.6327247
8	189370 20139 0 199165 0 9933.555927686365 478 0.11648831242152 167.65305297558 10099.954269818 450036.13883669
9	209509 21372 0 200293 0 9994.565651809048 507 0.018774316383182 123.30685329735 10023.351583663 390518.29216944
10	230881 21762 0 200255 0 9992.971229806203 505 0.01126292586193 100.02952703213 10002.709115566 374821.5786774
11	252643 21229 0 200387 0 9999.868820256587 491 0.020650964064097 130.87797495991 10008.327063591 398510.91624162
12	273872 21116 0 200307 0 9995.489486017136 490 0.055899150053028 132.21109125692 10009.8272863 407680.89731716
13	294988 24417 0 199187 0 9935.069235471278 565 0.00065153594588573 113.84046776778 10005.560095421 358697.71632636
14	319405 20523 0 200141 0 9986.780756937837 476 0.00092572346664555 140.92972275602 10002.93651576 435862.44337252
15	339928 20896 0 200221 0 9991.671010364048 485 0.0044071547167676 121.16134758203 10028.347412625 426548.3884451
16	360824 21423 0 200373 0 9999.236640431714 497 0.0029135196031651 143.17103391764 10035.316013044 393758.04839472
17	382247 22234 0 200093 0 9984.598160428643 515 0.085484780361107 138.73380628723 10002.832384483 399479.44247547
18	404481 22160 0 200173 0 9988.772546547751 514 0.024087297094687 121.68952952055 10046.968945767 395733.99150677
19	426641 23020 0 199841 0 9971.877073628775 534 0.12724309074684 99.662061552361 10019.476899624 378092.8933524
20	449661 21911 0 200279 0 9993.664744899441 508 0.048115510259543 134.26524639878 10008.391374355 387905.17797568
21	471572 21713 0 200233 0 9992.487382720007 504 0.045704507125695 161.69863132999 10013.782822833 418324.70985617
22	493285 21664 0 199969 0 9978.08634461965 503 0.069922338111937 128.39123930548 10005.726696565 391432.60930256
23	514949 20931 0 199111 0 9930.670121116801 486 0.14280053123908 113.28972541543 10023.575806865 390993.51672497
24	535880 22949 0 200301 0 9995.0886794442 531 0.029242591480737 112.19109361016 10006.171932981 341848.24821634
25	558829 20374 0 200209 0 9990.995136075231 472 0.010717266885447 119.61917870844 10040.321401437 418872.17541678
26	579203 23503 0 200205 0 9990.91617940134 545 0.0078627554038399 140.18193152648 10067.219422486 365082.27075969
27	602706 22107 0 199613 0 9959.355135259961 512 0.07518488947353 115.35869783696 10026.695773038 397742.68631979
28	624813 22065 0 199453 0 9948.446325436404 511 0.04246891103087 173.05184001842 10004.391550497 380440.62088373
29	646878 21632 0 200389 0 9999.906245037838 502 0.0042561080509125 106.902941724 10011.780527751 375074.53844476
30	668510 19911 0 199781 0 9968.656467350605 462 0.12580494890881 243.41944211079 10001.419960922 501787.87819594
31	688421 20114 0 200085 0 9983.150831627822 467 0.092579466569159 144.47473190484 10003.365268412 411012.36287368
32	708535 20235 0 200251 0 9992.872742943753 469 0.015335083980058 171.85811330909 10020.049977709 429123.48784003
33	728770 22597 0 199997 0 9979.687904212042 525 0.013844122774861 96.948017872447 10021.95593634 365880.53350911
34	751367 22347 0 199305 0 9941.794660722606 519 0.017610455393745 157.24341429734 10010.258690218 397403.85869022
35	773714 21680 0 200239 0 9992.603024549147 502 0.033824820901059 207.01310189947 10020.804063434 412382.16544247
36	795394 21089 0 200343 0 9997.808653387606 490 0.0047208212244308 128.73219567104 10015.282282622 426779.76366832
37	816483 22370 0 199233 0 9936.980617369187 519 0.047173536518398 99.395815907011 10025.167178016 383140.89427328
38	838853 20689 0 199651 0 9961.465252036862 479 0.056609747395308 183.67130023346 10007.257558771 413183.72748504
39	859542 21937 0 199813 0 9969.774535743142 509 0.0042442358220164 144.05806300669 10008.646463538 395686.78561511
40	881479 22363 0 199905 0 9975.312606419988 518 0.017173243165545 139.00136809604 10050.53779323 387277.33122588
41	903842 22034 0 200285 0 9994.057298967663 511 0.20409873554382 115.40110680067 10009.952081493 384211.0276334
42	925876 22941 0 198501 0 9902.806556162095 531 0.068037734891871 124.78519087121 10012.83371558 389754.32918392
43	948817 22863 0 199935 0 9976.872053074506 531 0.025881881807177 98.09590513427 10056.683717098 374590.31467862
44	971680 21928 0 200313 0 9995.761415974257 509 0.01326075692845 122.89696918979 10013.972589539 367434.54288098
45	993608 21491 0 199327 0 9942.825783806085 499 0.030335122229226 125.42111072734 10010.556911482 415516.41114601
46	1015099 22597 0 200113 0 9985.02581950399 524 0.10729850453892 130.22768306487 10001.665310911 370403.65306522
47	1037696 20873 0 199729 0 9966.817554518777 485 0.02233613034126 164.71131579045 10002.30188576 407667.67187379
48	1058569 23099 0 200359 0 9998.224070689648 536 0.077112522844267 162.08288547616 10016.260455788 390922.26207944
49	1081668 22223 0 199975 0 9978.629050201713 515 0.013835790987459 285.62370611772 10003.593718689 447866.24276315
50	1103891 21800 0 200329 0 9996.690670926002 505 0.010903305967085 127.29111301071 10011.557897475 400062.42813692
51	1125691 21508 0 200037 0 9981.180640725797 499 0.020605044433584 154.20208870592 10016.654582604 409021.90880579
52	1147199 21057 0 199953 0 9977.369692322897 488 0.037291041602678 142.26399371315 10005.165739858 428627.37209034
53	1168256 21842 0 199711 0 9965.335332356491 505 0.017031686866409 147.10904050696 10001.493806423 401892.15272819
54	1190098 21246 0 200237 0 9992.602558944164 492 0.0055358396456902 123.30207756637 10008.301797845 386868.29094103
55	1211344 22059 0 199609 0 9959.30861446602 512 0.11568352757895 147.51678910874 10009.626043843 400395.33737812
56	1233403 22866 0 200375 0 9999.323736094255 530 0.021111494704263 98.10960389625 10016.417131314 352724.09294417
57	1256269 21789 0 199465 0 9949.48957777239 505 0.0046188921113774 108.82577130045 10004.087545222 369192.8732796
58	1278058 22587 0 200337 0 9997.564468913431 523 0.017259035914533 135.08501697674 10022.551278784 373059.79775154
59	1300645 21922 0 199847 0 9972.154626337982 508 0.00048418184084518 139.12023338225 10004.948216607 397208.86657343
60	1322567 21485 0 199899 0 9974.915836987273 498 0.034057277359845 128.54348439988 10022.498370208 429867.97331414
61	1344052 20556 0 200245 0 9992.769666894441 477 0.028663654123145 125.36296771904 10007.631122798 393876.749726
62	1364608 21873 0 200053 0 9982.093169319578 506 0.0095005589830598 119.30650176415 10021.810989678 399418.41935031
63	1386481 20373 0 199253 0 9938.509382594284 472 0.0096496512698559 116.33081372943 10020.272739836 416020.82893037
64	1406854 21529 0 200297 0 9994.711561475928 499 0.033457234086797 105.76141141466 10035.986073576 395514.01702585
65	1428383 21935 0 199489 0 9953.288987800301 508 0.046339419460582 118.22230319634 10051.721237734 403831.60497801
66	1450318 20359 0 199109 0 9930.652929210253 472 0.01699959413786 97.83082559043 10001.902356316 399662.66771761