version 3
run Lognormal-19-20260105-17:15:12-28123
attr configname Lognormal
attr datetime 20260105-17:15:12
attr datetimef 20260105-171512
attr experiment Lognormal
attr inifile omnetpp.ini
attr iterationvars "$N=50, $p=0.8"
attr iterationvarsd N=50/p=0.8
attr iterationvarsf N=50,p=0.8-
attr measurement "$N=50, $p=0.8"
attr network progetto.DatabaseNetwork
attr processid 28123
attr repetition 4
attr replication #4
attr resultdir results
attr runnumber 19
attr seedset 4
itervar N 50
itervar p 0.8
config description "Lognormal distribution (hotspots) - varia N e p"
config *.user[*].tableDistribution "\"lognormal\""
config *.user[*].lognormalM 1.5
config *.user[*].lognormalS 1.0
config *.numUsers 50
config *.user[*].readProbability 0.8
config network progetto.DatabaseNetwork
config sim-time-limit 10000s
config cpu-time-limit 3600s
config repeat 5
config seed-set 4
config output-vector-file "results/Lognormal-$N=50, $p=0.8-4.vec"
config output-scalar-file "results/Lognormal-$N=50, $p=0.8-4.sca"
config result-dir results
config **.vector-recording true
config **.scalar-recording true
config *.numTables 20
config *.user[*].lambda 0.05
config *.user[*].serviceTime 0.1s

vector 0 DatabaseNetwork.user[0] AccessInterval ETV
vector 1 DatabaseNetwork.user[1] AccessInterval ETV
vector 2 DatabaseNetwork.user[2] AccessInterval ETV
vector 3 DatabaseNetwork.user[3] AccessInterval ETV
vector 4 DatabaseNetwork.user[4] AccessInterval ETV
vector 5 DatabaseNetwork.user[5] AccessInterval ETV
vector 6 DatabaseNetwork.user[6] AccessInterval ETV
vector 7 DatabaseNetwork.user[7] AccessInterval ETV
vector 8 DatabaseNetwork.user[8] AccessInterval ETV
vector 9 DatabaseNetwork.user[9] AccessInterval ETV
vector 10 DatabaseNetwork.user[10] AccessInterval ETV
vector 11 DatabaseNetwork.user[11] AccessInterval ETV
vector 12 DatabaseNetwork.user[12] AccessInterval ETV
vector 13 DatabaseNetwork.user[13] AccessInterval ETV
vector 14 DatabaseNetwork.user[14] AccessInterval ETV
vector 15 DatabaseNetwork.user[15] AccessInterval ETV
vector 16 DatabaseNetwork.user[16] AccessInterval ETV
vector 17 DatabaseNetwork.user[17] AccessInterval ETV
vector 18 DatabaseNetwork.user[18] AccessInterval ETV
vector 19 DatabaseNetwork.user[19] AccessInterval ETV
vector 20 DatabaseNetwork.user[20] AccessInterval ETV
vector 21 DatabaseNetwork.user[21] AccessInterval ETV
vector 22 DatabaseNetwork.user[22] AccessInterval ETV
vector 23 DatabaseNetwork.user[23] AccessInterval ETV
vector 24 DatabaseNetwork.user[24] AccessInterval ETV
vector 25 DatabaseNetwork.user[25] AccessInterval ETV
vector 26 DatabaseNetwork.user[26] AccessInterval ETV
vector 27 DatabaseNetwork.user[27] AccessInterval ETV
vector 28 DatabaseNetwork.user[28] AccessInterval ETV
vector 29 DatabaseNetwork.user[29] AccessInterval ETV
vector 30 DatabaseNetwork.user[30] AccessInterval ETV
vector 31 DatabaseNetwork.user[31] AccessInterval ETV
vector 32 DatabaseNetwork.user[32] AccessInterval ETV
vector 33 DatabaseNetwork.user[33] AccessInterval ETV
vector 34 DatabaseNetwork.user[34] AccessInterval ETV
vector 35 DatabaseNetwork.user[35] AccessInterval ETV
vector 36 DatabaseNetwork.user[36] AccessInterval ETV
vector 37 DatabaseNetwork.user[37] AccessInterval ETV
vector 38 DatabaseNetwork.user[38] AccessInterval ETV
vector 39 DatabaseNetwork.user[39] AccessInterval ETV
vector 40 DatabaseNetwork.user[40] AccessInterval ETV
vector 41 DatabaseNetwork.user[41] AccessInterval ETV
vector 42 DatabaseNetwork.user[42] AccessInterval ETV
vector 43 DatabaseNetwork.user[43] AccessInterval ETV
vector 44 DatabaseNetwork.user[44] AccessInterval ETV
vector 45 DatabaseNetwork.user[45] AccessInterval ETV
vector 46 DatabaseNetwork.user[46] AccessInterval ETV
vector 47 DatabaseNetwork.user[47] AccessInterval ETV
vector 48 DatabaseNetwork.user[48] AccessInterval ETV
vector 49 DatabaseNetwork.user[49] AccessInterval ETV
vector 50 DatabaseNetwork.user[21] ReadAccesses ETV
vector 51 DatabaseNetwork.user[14] ReadAccesses ETV
vector 52 DatabaseNetwork.user[32] ReadAccesses ETV
vector 53 DatabaseNetwork.user[21] WaitTime ETV
vector 54 DatabaseNetwork.user[14] WaitTime ETV
vector 55 DatabaseNetwork.user[32] WaitTime ETV
vector 56 DatabaseNetwork.user[41] ReadAccesses ETV
vector 57 DatabaseNetwork.user[41] WaitTime ETV
vector 58 DatabaseNetwork.user[43] ReadAccesses ETV
vector 59 DatabaseNetwork.user[36] ReadAccesses ETV
vector 60 DatabaseNetwork.user[43] WaitTime ETV
vector 61 DatabaseNetwork.user[36] WaitTime ETV
vector 62 DatabaseNetwork.user[11] ReadAccesses ETV
vector 63 DatabaseNetwork.user[11] WaitTime ETV
vector 64 DatabaseNetwork.user[28] ReadAccesses ETV
vector 65 DatabaseNetwork.user[28] WaitTime ETV
vector 66 DatabaseNetwork.user[3] ReadAccesses ETV
vector 67 DatabaseNetwork.user[48] ReadAccesses ETV
vector 68 DatabaseNetwork.user[3] WaitTime ETV
vector 69 DatabaseNetwork.user[48] WaitTime ETV
vector 70 DatabaseNetwork.user[22] ReadAccesses ETV
vector 71 DatabaseNetwork.user[22] WaitTime ETV
vector 72 DatabaseNetwork.user[10] WriteAccesses ETV
vector 73 DatabaseNetwork.user[10] WaitTime ETV
vector 74 DatabaseNetwork.user[13] ReadAccesses ETV
vector 75 DatabaseNetwork.user[13] WaitTime ETV
vector 76 DatabaseNetwork.user[16] WriteAccesses ETV
vector 77 DatabaseNetwork.user[16] WaitTime ETV
vector 78 DatabaseNetwork.user[43] WriteAccesses ETV
vector 79 DatabaseNetwork.user[35] WriteAccesses ETV
vector 80 DatabaseNetwork.user[35] WaitTime ETV
vector 81 DatabaseNetwork.user[13] WriteAccesses ETV
vector 82 DatabaseNetwork.user[25] ReadAccesses ETV
vector 83 DatabaseNetwork.user[25] WaitTime ETV
vector 84 DatabaseNetwork.user[34] ReadAccesses ETV
vector 85 DatabaseNetwork.user[34] WaitTime ETV
vector 86 DatabaseNetwork.user[29] ReadAccesses ETV
vector 87 DatabaseNetwork.user[29] WaitTime ETV
vector 88 DatabaseNetwork.user[18] ReadAccesses ETV
vector 89 DatabaseNetwork.user[40] ReadAccesses ETV
vector 90 DatabaseNetwork.user[18] WaitTime ETV
vector 91 DatabaseNetwork.user[40] WaitTime ETV
vector 92 DatabaseNetwork.user[49] ReadAccesses ETV
vector 93 DatabaseNetwork.user[49] WaitTime ETV
vector 94 DatabaseNetwork.user[47] ReadAccesses ETV
vector 95 DatabaseNetwork.user[47] WaitTime ETV
vector 96 DatabaseNetwork.user[35] ReadAccesses ETV
vector 97 DatabaseNetwork.user[2] ReadAccesses ETV
vector 98 DatabaseNetwork.user[2] WaitTime ETV
vector 99 DatabaseNetwork.user[23] WriteAccesses ETV
vector 100 DatabaseNetwork.user[23] ReadAccesses ETV
vector 101 DatabaseNetwork.user[23] WaitTime ETV
vector 102 DatabaseNetwork.user[30] ReadAccesses ETV
vector 103 DatabaseNetwork.user[9] ReadAccesses ETV
vector 104 DatabaseNetwork.user[30] WaitTime ETV
vector 105 DatabaseNetwork.user[9] WaitTime ETV
vector 106 DatabaseNetwork.user[27] ReadAccesses ETV
vector 107 DatabaseNetwork.user[27] WaitTime ETV
vector 108 DatabaseNetwork.user[7] ReadAccesses ETV
vector 109 DatabaseNetwork.user[2] WriteAccesses ETV
vector 110 DatabaseNetwork.user[7] WaitTime ETV
vector 111 DatabaseNetwork.user[33] ReadAccesses ETV
vector 112 DatabaseNetwork.user[33] WaitTime ETV
vector 113 DatabaseNetwork.user[19] ReadAccesses ETV
vector 114 DatabaseNetwork.user[19] WaitTime ETV
vector 115 DatabaseNetwork.user[37] ReadAccesses ETV
vector 116 DatabaseNetwork.user[37] WaitTime ETV
vector 117 DatabaseNetwork.user[8] ReadAccesses ETV
vector 118 DatabaseNetwork.user[15] ReadAccesses ETV
vector 119 DatabaseNetwork.user[8] WaitTime ETV
vector 120 DatabaseNetwork.user[15] WaitTime ETV
vector 121 DatabaseNetwork.user[6] ReadAccesses ETV
vector 122 DatabaseNetwork.user[6] WaitTime ETV
vector 123 DatabaseNetwork.user[20] ReadAccesses ETV
vector 124 DatabaseNetwork.user[20] WaitTime ETV
vector 125 DatabaseNetwork.user[44] WriteAccesses ETV
vector 126 DatabaseNetwork.user[44] WaitTime ETV
vector 127 DatabaseNetwork.user[15] WriteAccesses ETV
vector 128 DatabaseNetwork.user[6] WriteAccesses ETV
vector 129 DatabaseNetwork.user[47] WriteAccesses ETV
vector 130 DatabaseNetwork.user[39] ReadAccesses ETV
vector 131 DatabaseNetwork.user[31] WriteAccesses ETV
vector 132 DatabaseNetwork.user[39] WaitTime ETV
vector 133 DatabaseNetwork.user[31] WaitTime ETV
vector 134 DatabaseNetwork.user[41] WriteAccesses ETV
vector 135 DatabaseNetwork.user[27] WriteAccesses ETV
vector 136 DatabaseNetwork.user[39] WriteAccesses ETV
vector 137 DatabaseNetwork.user[20] WriteAccesses ETV
vector 138 DatabaseNetwork.user[36] WriteAccesses ETV
vector 139 DatabaseNetwork.user[28] WriteAccesses ETV
vector 140 DatabaseNetwork.user[5] WriteAccesses ETV
vector 141 DatabaseNetwork.user[5] WaitTime ETV
vector 142 DatabaseNetwork.user[24] WriteAccesses ETV
vector 143 DatabaseNetwork.user[24] WaitTime ETV
vector 144 DatabaseNetwork.user[46] WriteAccesses ETV
vector 145 DatabaseNetwork.user[46] WaitTime ETV
vector 146 DatabaseNetwork.user[7] WriteAccesses ETV
vector 147 DatabaseNetwork.user[18] WriteAccesses ETV
vector 148 DatabaseNetwork.user[1] ReadAccesses ETV
vector 149 DatabaseNetwork.user[1] WaitTime ETV
vector 150 DatabaseNetwork.user[17] ReadAccesses ETV
vector 151 DatabaseNetwork.user[17] WaitTime ETV
vector 152 DatabaseNetwork.user[40] WriteAccesses ETV
vector 153 DatabaseNetwork.user[46] ReadAccesses ETV
vector 154 DatabaseNetwork.user[10] ReadAccesses ETV
vector 155 DatabaseNetwork.user[45] ReadAccesses ETV
vector 156 DatabaseNetwork.user[45] WaitTime ETV
vector 157 DatabaseNetwork.user[42] ReadAccesses ETV
vector 158 DatabaseNetwork.user[42] WaitTime ETV
vector 159 DatabaseNetwork.user[24] ReadAccesses ETV
vector 160 DatabaseNetwork.user[42] WriteAccesses ETV
vector 161 DatabaseNetwork.user[38] WriteAccesses ETV
vector 162 DatabaseNetwork.user[38] WaitTime ETV
vector 163 DatabaseNetwork.user[11] WriteAccesses ETV
vector 164 DatabaseNetwork.user[31] ReadAccesses ETV
vector 165 DatabaseNetwork.user[5] ReadAccesses ETV
vector 166 DatabaseNetwork.user[19] WriteAccesses ETV
vector 167 DatabaseNetwork.user[30] WriteAccesses ETV
vector 168 DatabaseNetwork.user[0] ReadAccesses ETV
vector 169 DatabaseNetwork.user[0] WaitTime ETV
vector 170 DatabaseNetwork.user[16] ReadAccesses ETV
vector 171 DatabaseNetwork.user[4] ReadAccesses ETV
vector 172 DatabaseNetwork.user[4] WaitTime ETV
vector 173 DatabaseNetwork.user[17] WriteAccesses ETV
vector 174 DatabaseNetwork.user[12] ReadAccesses ETV
vector 175 DatabaseNetwork.user[12] WaitTime ETV
vector 176 DatabaseNetwork.user[26] ReadAccesses ETV
vector 177 DatabaseNetwork.user[26] WaitTime ETV
vector 178 DatabaseNetwork.user[21] WriteAccesses ETV
vector 179 DatabaseNetwork.user[44] ReadAccesses ETV
vector 180 DatabaseNetwork.user[48] WriteAccesses ETV
vector 181 DatabaseNetwork.user[38] ReadAccesses ETV
vector 182 DatabaseNetwork.user[9] WriteAccesses ETV
vector 183 DatabaseNetwork.user[12] WriteAccesses ETV
vector 184 DatabaseNetwork.user[49] WriteAccesses ETV
vector 185 DatabaseNetwork.user[22] WriteAccesses ETV
vector 186 DatabaseNetwork.user[45] WriteAccesses ETV
vector 187 DatabaseNetwork.user[34] WriteAccesses ETV
vector 188 DatabaseNetwork.user[3] WriteAccesses ETV
vector 189 DatabaseNetwork.user[29] WriteAccesses ETV
vector 190 DatabaseNetwork.user[26] WriteAccesses ETV
vector 191 DatabaseNetwork.user[1] WriteAccesses ETV
vector 192 DatabaseNetwork.user[33] WriteAccesses ETV
vector 193 DatabaseNetwork.user[37] WriteAccesses ETV
vector 194 DatabaseNetwork.user[25] WriteAccesses ETV
vector 195 DatabaseNetwork.user[32] WriteAccesses ETV
vector 196 DatabaseNetwork.user[0] WriteAccesses ETV
vector 197 DatabaseNetwork.user[4] WriteAccesses ETV
vector 198 DatabaseNetwork.user[14] WriteAccesses ETV
vector 199 DatabaseNetwork.user[8] WriteAccesses ETV
0	0	0	68.243046383688
0	685	68.243046383688	7.3329245274662
0	757	75.575970911154	19.148609093434
0	981	94.724580004588	23.607231468619
0	1165	118.331811473207	6.8633833054461
0	1249	125.195194778653	28.345196686776
0	1519	153.540391465429	26.877023989186
0	1737	180.417415454615	22.969134851986
0	1967	203.386550306601	13.305951213785
0	2137	216.692501520386	9.5826806744647
0	2249	226.275182194851	97.730890011563
0	3109	324.006072206414	10.906591776868
0	3257	334.912663983282	39.134823751515
0	3641	374.047487734797	150.89110008878
0	5125	524.938587823576	12.104369546608
0	5269	537.042957370184	25.829428047068
0	5527	562.872385417252	1.2411609918632
0	5537	564.113546409115	1.2334798869158
0	5561	565.347026296031	22.242009832078
0	5793	587.589036128109	18.847730083415
0	5973	606.436766211524	15.758592092854
0	6125	622.195358304378	59.214565076447
0	6689	681.409923380825	29.216052922248
0	6953	710.625976303073	9.1912372655153
0	7051	719.817213568588	10.104434698988
0	7137	729.921648267576	5.4048941240603
0	7189	735.326542391636	20.280522260356
0	7361	755.607064651992	13.900206861608
0	7509	769.5072715136	5.0906493771948
0	7563	774.597920890795	17.85858335086
0	7753	792.456504241655	12.011569044627
0	7865	804.468073286282	64.972042140378
0	8513	869.44011542666	24.206596578069
0	8721	893.646712004729	18.304290023126
0	8873	911.951002027855	1.1913881374746
0	8889	913.14239016533	0.22065390294964
0	8893	913.36304406828	13.812359769171
0	9021	927.175403837451	60.490049796294
0	9615	987.665453633745	16.499520521301
0	9753	1004.164974155046	8.0122815744883
0	9835	1012.177255729534	1.7755477341093
0	9865	1013.952803463643	16.218794393033
0	10029	1030.171597856676	5.6291247492868
0	10067	1035.800722605963	28.404329703042
0	10369	1064.205052309005	93.66548283104
0	11233	1157.870535140045	19.102216239452
0	11389	1176.972751379497	2.0396685624862
0	11413	1179.012419941983	12.917505008028
0	11565	1191.929924950011	7.5883215676991
0	11625	1199.51824651771	70.921044018588
0	12345	1270.439290536298	3.1294056512876
0	12385	1273.568696187586	13.212405040975
0	12497	1286.781101228561	8.0195724913333
0	12567	1294.800673719894	9.3937374879575
0	12677	1304.194411207851	14.085623054256
0	12821	1318.280034262107	8.338617773922
0	12923	1326.618652036029	13.51186789785
0	13047	1340.130519933879	22.93427931545
0	13251	1363.064799249329	6.8563884015121
0	13337	1369.921187650841	4.5001325167102
0	13409	1374.421320167551	40.204033504177
0	13869	1414.625353671728	1.477521281688
0	13889	1416.102874953416	22.793680384213
0	14109	1438.896555337629	24.164016547657
0	14353	1463.060571885286	36.844386190039
0	14693	1499.904958075325	2.3897334674678
0	14745	1502.294691542793	47.576898408952
0	15213	1549.871589951745	26.043689926745
0	15479	1575.91527987849	0.89634610825603
0	15489	1576.811625986746	11.114779302902
0	15621	1587.926405289648	2.4267467535114
0	15641	1590.353152043159	44.149142165007
0	16001	1634.502294208166	7.6521314913474
0	16093	1642.154425699513	16.406118340373
0	16257	1658.560544039886	61.86832237847
0	16869	1720.428866418356	9.9770771348824
0	16989	1730.405943553238	27.966194429774
0	17229	1758.372137983012	66.415524924415
0	17869	1824.787662907427	1.3094588497734
0	17893	1826.0971217572	52.014917314554
0	18361	1878.112039071754	38.711310589309
0	18785	1916.823349661063	1.7538050886065
0	18811	1918.57715474967	29.100555704568
0	19081	1947.677710454238	38.271274843073
0	19413	1985.948985297311	7.8722277549157
0	19511	1993.821213052227	19.514869655107
0	19721	2013.336082707334	20.127204025249
0	19963	2033.463286732583	0.53220375806578
0	19971	2033.995490490649	4.8969805339127
0	20029	2038.892471024562	20.013689102201
0	20261	2058.906160126763	1.0298992113447
0	20265	2059.936059338108	33.764104347362
0	20581	2093.70016368547	24.644051927308
0	20821	2118.344215612778	10.681894053397
0	20901	2129.026109666175	3.4478074258912
0	20933	2132.473917092066	1.4939107968722
0	20945	2133.967827888938	5.304743457317
0	21011	2139.272571346255	8.1869850366174
0	21077	2147.459556382872	6.7826313569317
0	21125	2154.242187739804	18.755401401151
0	21321	2172.997589140955	12.20147598394
0	21449	2185.199065124895	8.5044476103653
0	21553	2193.70351273526	15.495043656947
0	21699	2209.198556392207	13.058771573306
0	21857	2222.257327965513	33.437915126982
0	22225	2255.695243092495	17.534188113035
0	22379	2273.22943120553	25.163311554362
0	22643	2298.392742759892	40.403220303561
0	23037	2338.795963063453	9.1860097611267
0	23109	2347.98197282458	3.8370292684414
0	23145	2351.819002093021	17.647932348767
0	23333	2369.466934441788	6.9827882699865
0	23409	2376.449722711774	21.978911269979
0	23609	2398.428633981753	8.5523035426759
0	23697	2406.980937524429	0.27879728155932
0	23701	2407.259734805988	14.255623500156
0	23829	2421.515358306144	1.5573558820193
0	23853	2423.072714188163	44.812943887236
0	24271	2467.885658075399	87.100950391213
0	25133	2554.986608466612	53.191405488164
0	25665	2608.178013954776	9.4066847866045
0	25745	2617.58469874138	37.526889278293
0	26101	2655.111588019673	7.0419089181102
0	26141	2662.153496937783	2.9505831630072
0	26163	2665.10408010079	3.2768153457549
0	26189	2668.380895446545	6.0667398335672
0	26251	2674.447635280112	43.838331688753
0	26665	2718.285966968865	32.340298938558
0	26959	2750.626265907423	20.861213878866
0	27183	2771.487479786289	16.392910024554
0	27329	2787.880389810843	3.3243798978487
0	27367	2791.204769708692	10.027023052989
0	27469	2801.231792761681	11.380087749183
0	27593	2812.611880510864	13.288205358362
0	27719	2825.900085869226	21.569254593923
0	27941	2847.469340463149	2.65769880902
0	27973	2850.127039272169	2.9046276692691
0	28005	2853.031666941438	13.710281367572
0	28163	2866.74194830901	20.326550971488
0	28437	2887.068499280498	7.4084060211414
0	28489	2894.476905301639	11.727981247684
0	28605	2906.204886549323	13.775711219844
0	28725	2919.980597769167	5.1896805640036
0	28771	2925.170278333171	35.267269062904
0	29085	2960.437547396075	47.235880637909
0	29529	3007.673428033984	37.150257821281
0	29897	3044.823685855265	5.8077970463536
0	29977	3050.631482901619	18.46645797156
0	30125	3069.097940873179	21.967712157258
0	30325	3091.065653030437	3.3378326319907
0	30371	3094.403485662428	14.788986835116
0	30525	3109.192472497544	16.366571770615
0	30673	3125.559044268159	13.1500580506
0	30827	3138.709102318759	10.82399599566
0	30955	3149.533098314419	36.283771889662
0	31365	3185.816870204081	13.46006841912
0	31469	3199.276938623201	5.8447951468876
0	31525	3205.121733770089	0.71156495771276
0	31537	3205.833298727802	29.776866836925
0	31817	3235.610165564727	9.7490241175965
0	31941	3245.359189682323	0.041535691179783
0	31943	3245.400725373503	3.1677200996239
0	31969	3248.568445473127	9.6981485751761
0	32045	3258.266594048303	1.1793660851825
0	32057	3259.445960133485	12.397208340962
0	32225	3271.843168474447	10.224137219817
0	32313	3282.067305694264	26.129853585146
0	32609	3308.19715927941	0.25207111765664
0	32615	3308.449230397067	55.943431205516
0	33117	3364.392661602583	25.420205875114
0	33369	3389.812867477697	48.560010776897
0	33917	3438.372878254594	10.739641376223
0	34045	3449.112519630817	5.2981396435569
0	34089	3454.410659274374	5.3256720370142
0	34141	3459.736331311388	10.429304645904
0	34221	3470.165635957292	21.107666070058
0	34441	3491.27330202735	1.1043046511216
0	34457	3492.377606678472	2.5184108971687
0	34501	3494.896017575641	7.7396751855031
0	34621	3502.635692761144	9.0906660257757
0	34717	3511.72635878692	46.965836883542
0	35203	3558.692195670462	13.123182371823
0	35297	3571.815378042285	62.239656879048
0	35831	3634.055034921333	21.244925704291
0	36073	3655.299960625624	22.182066630281
0	36293	3677.482027255905	14.954076681826
0	36425	3692.436103937731	6.6295980840744
0	36473	3699.065702021805	33.206491306135
0	36809	3732.27219332794	33.826924964034
0	37129	3766.099118291974	14.59880792125
0	37341	3780.697926213224	3.4582754563037
0	37401	3784.156201669528	4.6360674782871
0	37441	3788.792269147815	7.8163338126086
0	37533	3796.608602960424	89.686914721591
0	38401	3886.295517682015	65.281310202102
0	39005	3951.576827884117	0.14220788598285
0	39011	3951.7190357701	4.3883890564123
0	39057	3956.107424826512	29.447303011937
0	39303	3985.554727838449	9.8004109382159
0	39381	3995.355138776665	19.961444161345
0	39593	4015.31658293801	6.8288476243121
0	39685	4022.145430562322	2.7646888780807
0	39709	4024.910119440403	3.5478526855403
0	39741	4028.457972125943	4.3230472456415
0	39785	4032.781019371585	7.3311860028919
0	39867	4040.112205374477	24.588130977095
0	40129	4064.700336351572	56.930994368432
0	40697	4121.631330720004	90.614772280833
0	41697	4212.246103000837	31.875965624469
0	42031	4244.122068625306	6.7670933298132
0	42107	4250.889161955119	11.530429768888
0	42221	4262.419591724007	2.007473647034
0	42245	4264.427065371041	24.760073310539
0	42469	4289.18713868158	9.3649479564261
0	42573	4298.552086638006	52.303474414973
0	43117	4350.855561052979	3.8988121077951
0	43157	4354.754373160774	80.353496777856
0	43955	4435.10786993863	19.324271907447
0	44135	4454.432141846077	7.7854918994451
0	44221	4462.217633745522	1.4223795814031
0	44239	4463.640013326925	2.6597651051033
0	44273	4466.299778432028	36.916022809111
0	44649	4503.215801241139	22.813264840921
0	44877	4526.02906608206	11.980271253029
0	45015	4538.009337335089	1.7616859431238
0	45029	4539.771023278213	14.01974596954
0	45185	4553.790769247753	7.0957859461519
0	45225	4560.886555193905	1.6432069900328
0	45241	4562.529762183938	26.38755737631
0	45477	4588.917319560248	1.5454985006731
0	45491	4590.462818060921	67.64654955585
0	46129	4658.109367616771	29.430369990449
0	46425	4687.53973760722	94.116666762089
0	47329	4781.65640436931	14.953853930027
0	47473	4796.610258299337	14.24810927077
0	47609	4810.858367570107	16.267181547731
0	47781	4827.125549117838	4.1704921614913
0	47825	4831.296041279329	94.458835019187
0	48805	4925.754876298516	1.2100381360468
0	48813	4926.964914434563	3.4967414935761
0	48849	4930.461655928139	7.7249480467252
0	48917	4938.186603974864	4.691462997684
0	48949	4942.878066972548	21.217414657848
0	49145	4964.095481630396	20.649631122076
0	49371	4984.745112752472	3.2588344392829
0	49405	4988.003947191755	1.4468663414559
0	49429	4989.450813533211	11.227171005924
0	49521	5000.677984539135	0.18088152047843
0	49525	5000.858866059613	2.6958316329954
0	49561	5003.554697692608	5.5764043485375
0	49639	5009.131102041145	8.9861908761807
0	49765	5018.117292917326	38.333999303855
0	50173	5056.451292221181	39.192513454259
0	50501	5095.64380567544	14.530634095436
0	50649	5110.174439770876	44.886200533709
0	51045	5155.060640304585	6.3931059885844
0	51091	5161.453746293169	1.0807387877442
0	51105	5162.534485080913	44.944021241185
0	51569	5207.478506322098	77.650154665301
0	52301	5285.128660987399	50.401947399487
0	52747	5335.530608386886	54.449173120843
0	53297	5389.979781507729	9.6423493654524
0	53409	5399.622130873181	23.423420518323
0	53641	5423.045551391504	10.3499720942
0	53761	5433.395523485704	4.9652594461938
0	53799	5438.360782931898	11.747960251757
0	53985	5450.108743183655	87.534241862603
0	54817	5537.642985046258	16.001528838223
0	54977	5553.644513884481	12.470869565441
0	55089	5566.115383449922	19.701951386826
0	55273	5585.817334836748	23.277534420452
0	55605	5609.0948692572	11.034886946401
0	55705	5620.129756203601	14.668149601136
0	55845	5634.797905804737	28.557550134412
0	56097	5663.355455939149	11.714492561996
0	56249	5675.069948501145	10.276134543691
0	56345	5685.346083044836	27.10978106976
0	56553	5712.455864114596	17.207825676665
0	56753	5729.663689791261	4.6474534861346
0	56785	5734.311143277396	20.22794096623
0	56985	5754.539084243626	0.12222501340959
0	56989	5754.661309257036	85.558060114934
0	57893	5840.21936937197	7.2255039332273
0	57973	5847.444873305197	12.233235275904
0	58119	5859.678108581101	8.7207574594781
0	58235	5868.398866040579	15.961641938885
0	58409	5884.360507979464	11.328341338951
0	58507	5895.688849318415	10.118005520586
0	58605	5905.806854839001	9.0662529988258
0	58713	5914.873107837827	6.3914613742739
0	58765	5921.264569212101	23.511986864415
0	59001	5944.776556076516	12.614033385073
0	59121	5957.390589461589	7.9888820561529
0	59189	5965.379471517742	10.588997010946
0	59291	5975.968468528688	1.822321490173
0	59323	5977.790790018861	9.7958414770275
0	59443	5987.586631495889	10.111945391398
0	59581	5997.698576887287	8.1926652955925
0	59673	6005.89124218288	9.4101186541374
0	59743	6015.301360837017	6.0287271674787
0	59801	6021.330088004496	0.53735146247209
0	59813	6021.867439466968	121.95513517604
0	61071	6143.822574643007	18.584026913555
0	61273	6162.406601556562	2.3531356228075
0	61289	6164.759737179369	5.4215394160005
0	61337	6170.18127659537	32.137179420866
0	61713	6202.318456016236	9.3454676450568
0	61841	6211.663923661293	3.2081899000148
0	61879	6214.872113561308	21.198523415877
0	62093	6236.070636977185	53.499474140642
0	62667	6289.570111117827	42.622961373573
0	63149	6332.1930724914	25.145791708531
0	63445	6357.338864199931	47.973808671136
0	63967	6405.312672871067	4.848859363112
0	64037	6410.161532234179	38.720121995433
0	64385	6448.881654229612	9.3071462777585
0	64517	6458.188800507371	17.478209383944
0	64713	6475.667009891315	9.0308006817703
0	64801	6484.697810573085	9.1805753663895
0	64899	6493.878385939475	24.613319275836
0	65111	6518.491705215311	7.7804292343019
0	65209	6526.272134449613	68.807781806241
0	65869	6595.079916255854	5.1183683158428
0	65909	6600.198284571697	60.606644376641
0	66539	6660.804928948338	45.243809119766
0	67043	6706.048738068104	27.748951718859
0	67309	6733.797689786963	1.4150308565839
0	67325	6735.212720643547	19.108110683206
0	67489	6754.320831326753	6.4569516337557
0	67547	6760.777782960509	24.139167875693
0	67821	6784.916950836202	24.207713653587
0	68045	6809.124664489789	10.363996409422
0	68157	6819.488660899211	4.333027361402
0	68213	6823.821688260613	3.7313850029029
0	68277	6827.553073263516	23.531394625394
0	68533	6851.08446788891	22.054142958695
0	68727	6873.138610847605	25.631024566334
0	69029	6898.769635413939	5.0030178891094
0	69081	6903.772653303048	30.406195295625
0	69401	6934.178848598673	6.1431691137634
0	69473	6940.322017712436	25.506986231813
0	69727	6965.829003944249	0.36338531365653
0	69737	6966.192389257906	11.863871885551
0	69829	6978.056261143457	2.6326040972909
0	69861	6980.688865240748	0.17852209765375
0	69867	6980.867387338402	2.8158305334974
0	69891	6983.683217871899	12.988853131166
0	70013	6996.672071003065	16.12746115816
0	70141	7012.799532161225	7.1993329900553
0	70203	7019.99886515128	11.068306441143
0	70353	7031.067171592423	36.235495917277
0	70729	7067.3026675097	68.212016647032
0	71383	7135.514684156732	2.6136267209599
0	71427	7138.128310877692	15.028279243202
0	71579	7153.156590120894	18.576602515183
0	71821	7171.733192636077	3.6318559784713
0	71849	7175.365048614548	4.3127644958704
0	71911	7179.677813110418	17.015111492758
0	72113	7196.692924603176	8.6815363311789
0	72205	7205.374460934355	4.5863993009456
0	72265	7209.960860235301	29.983039808457
0	72565	7239.943900043758	21.420591222136
0	72757	7261.364491265894	2.9569878662199
0	72817	7264.321479132114	5.4435349707515
0	72867	7269.765014102865	0.36681961786965
0	72873	7270.131833720735	17.311656790754
0	73047	7287.443490511489	62.925778837563
0	73697	7350.369269349052	14.801072732627
0	73811	7365.170342081679	16.92143345472
0	74029	7382.091775536399	7.1871332152644
0	74113	7389.278908751663	32.721589741155
0	74497	7422.000498492818	47.904112252037
0	75001	7469.904610744855	24.661756981643
0	75253	7494.566367726498	5.1586850991566
0	75283	7499.725052825655	98.818492872156
0	76217	7598.543545697811	4.478833195716
0	76291	7603.022378893527	0.53142767635279
0	76313	7603.55380656988	0.17689545381433
0	76317	7603.730702023694	0.69454477175402
0	76329	7604.425246795448	37.952476457658
0	76659	7642.377723253106	29.064779007
0	76957	7671.442502260106	12.688317980016
0	77065	7684.130820240122	8.6631782417794
0	77117	7692.793998481901	3.3049534021738
0	77147	7696.098951884075	31.640739497378
0	77493	7727.739691381453	20.602587838331
0	77693	7748.342279219784	1.8389113798735
0	77727	7750.181190599658	0.17944274454408
0	77735	7750.360633344202	18.466611997938
0	77889	7768.82724534214	39.215807905029
0	78237	7808.043053247169	9.8545747233219
0	78325	7817.897627970491	10.289511075301
0	78393	7828.187139045792	8.4124634603054
0	78491	7836.599602506097	63.52037046202
0	79153	7900.119972968117	63.913812532036
0	79801	7964.033785500153	17.709828431001
0	79985	7981.743613931154	12.154706461655
0	80109	7993.898320392809	10.026989856936
0	80211	8003.925310249745	25.790976026507
0	80473	8029.716286276252	1.4554621111374
0	80485	8031.171748387389	19.781720353151
0	80657	8050.95346874054	16.642820507428
0	80825	8067.596289247968	7.9956186471
0	80897	8075.591907895068	2.5830581141203
0	80911	8078.174966009188	0.73044587720267
0	80917	8078.905411886391	1.4384821394131
0	80937	8080.343894025804	9.9516724970698
0	81039	8090.295566522874	24.059765916318
0	81293	8114.355332439192	14.165494719246
0	81425	8128.520827158438	12.169993153659
0	81525	8140.690820312097	50.677766213528
0	82093	8191.368586525625	0.086651054635364
0	82095	8191.45523758026	5.5733306547644
0	82165	8197.028568235024	3.9507032993467
0	82209	8200.979271534371	13.688331700459
0	82325	8214.66760323483	1.5812174805313
0	82341	8216.248820715361	0.77941073485447
0	82347	8217.028231450215	25.188487093742
0	82529	8242.216718543957	34.923373909887
0	82877	8277.140092453844	74.52989840908
0	83557	8351.669990862924	33.419669006887
0	83869	8385.089659869811	50.712749961147
0	84433	8435.802409830958	53.857717361472
0	84965	8489.66012719243	28.183710763248
0	85273	8517.843837955678	12.607130706165
0	85409	8530.450968661843	2.50772230549
0	85427	8532.958690967333	51.110988861559
0	85967	8584.069679828892	29.845007928645
0	86261	8613.914687757537	18.792424520873
0	86441	8632.70711227841	30.885159286921
0	86737	8663.592271565331	22.951055913113
0	86965	8686.543327478444	3.4611465690813
0	87003	8690.004474047525	18.199725388996
0	87241	8708.204199436522	17.970170580222
0	87389	8726.174370016744	30.980677380047
0	87665	8757.155047396791	4.1563782189088
0	87725	8761.3114256157	1.3046270630959
0	87737	8762.616052678796	2.9549078060585
0	87769	8765.570960484854	6.6667331593574
0	87849	8772.237693644211	44.335597649995
0	88257	8816.573291294206	19.284303445984
0	88469	8835.85759474019	11.054533779856