file 4456658 1767628884                                         
version 3
run Lognormal-40-20260105-17:01:24-25149
attr configname Lognormal
attr datetime 20260105-17:01:24
attr datetimef 20260105-170124
attr experiment Lognormal
attr inifile omnetpp.ini
attr iterationvars "$N=75, $p=0.8"
attr iterationvarsd N=75/p=0.8
attr iterationvarsf N=75,p=0.8-
attr measurement "$N=75, $p=0.8"
attr network progetto.DatabaseNetwork
attr processid 25149
attr repetition 0
attr replication #0
attr resultdir results
attr runnumber 40
attr seedset 0
itervar N 75
itervar p 0.8
config description "Lognormal distribution (hotspots) - varia N e p"
config *.user[*].tableDistribution "\"lognormal\""
config *.user[*].lognormalM 1.5
config *.user[*].lognormalS 1.0
config *.numUsers 75
config *.user[*].readProbability 0.8
config network progetto.DatabaseNetwork
config sim-time-limit 10000s
config cpu-time-limit 3600s
config repeat 5
config seed-set 0
config output-vector-file "results/Lognormal-$N=75, $p=0.8-0.vec"
config output-scalar-file "results/Lognormal-$N=75, $p=0.8-0.sca"
config result-dir results
config **.vector-recording true
config **.scalar-recording true
config *.numTables 20
config *.user[*].lambda 0.05
config *.user[*].serviceTime 0.1s

vector 0 DatabaseNetwork.user[0] AccessInterval ETV
vector 1 DatabaseNetwork.user[1] AccessInterval ETV
vector 2 DatabaseNetwork.user[2] AccessInterval ETV
vector 3 DatabaseNetwork.user[3] AccessInterval ETV
vector 4 DatabaseNetwork.user[4] AccessInterval ETV
vector 5 DatabaseNetwork.user[5] AccessInterval ETV
vector 6 DatabaseNetwork.user[6] AccessInterval ETV
vector 7 DatabaseNetwork.user[7] AccessInterval ETV
vector 8 DatabaseNetwork.user[8] AccessInterval ETV
vector 9 DatabaseNetwork.user[9] AccessInterval ETV
vector 10 DatabaseNetwork.user[10] AccessInterval ETV
vector 11 DatabaseNetwork.user[11] AccessInterval ETV
vector 12 DatabaseNetwork.user[12] AccessInterval ETV
vector 13 DatabaseNetwork.user[13] AccessInterval ETV
vector 14 DatabaseNetwork.user[14] AccessInterval ETV
vector 15 DatabaseNetwork.user[15] AccessInterval ETV
vector 16 DatabaseNetwork.user[16] AccessInterval ETV
vector 17 DatabaseNetwork.user[17] AccessInterval ETV
vector 18 DatabaseNetwork.user[18] AccessInterval ETV
vector 19 DatabaseNetwork.user[19] AccessInterval ETV
vector 20 DatabaseNetwork.user[20] AccessInterval ETV
vector 21 DatabaseNetwork.user[21] AccessInterval ETV
vector 22 DatabaseNetwork.user[22] AccessInterval ETV
vector 23 DatabaseNetwork.user[23] AccessInterval ETV
vector 24 DatabaseNetwork.user[24] AccessInterval ETV
vector 25 DatabaseNetwork.user[25] AccessInterval ETV
vector 26 DatabaseNetwork.user[26] AccessInterval ETV
vector 27 DatabaseNetwork.user[27] AccessInterval ETV
vector 28 DatabaseNetwork.user[28] AccessInterval ETV
vector 29 DatabaseNetwork.user[29] AccessInterval ETV
vector 30 DatabaseNetwork.user[30] AccessInterval ETV
vector 31 DatabaseNetwork.user[31] AccessInterval ETV
vector 32 DatabaseNetwork.user[32] AccessInterval ETV
vector 33 DatabaseNetwork.user[33] AccessInterval ETV
vector 34 DatabaseNetwork.user[34] AccessInterval ETV
vector 35 DatabaseNetwork.user[35] AccessInterval ETV
vector 36 DatabaseNetwork.user[36] AccessInterval ETV
vector 37 DatabaseNetwork.user[37] AccessInterval ETV
vector 38 DatabaseNetwork.user[38] AccessInterval ETV
vector 39 DatabaseNetwork.user[39] AccessInterval ETV
vector 40 DatabaseNetwork.user[40] AccessInterval ETV
vector 41 DatabaseNetwork.user[41] AccessInterval ETV
vector 42 DatabaseNetwork.user[42] AccessInterval ETV
vector 43 DatabaseNetwork.user[43] AccessInterval ETV
vector 44 DatabaseNetwork.user[44] AccessInterval ETV
vector 45 DatabaseNetwork.user[45] AccessInterval ETV
vector 46 DatabaseNetwork.user[46] AccessInterval ETV
vector 47 DatabaseNetwork.user[47] AccessInterval ETV
vector 48 DatabaseNetwork.user[48] AccessInterval ETV
vector 49 DatabaseNetwork.user[49] AccessInterval ETV
vector 50 DatabaseNetwork.user[50] AccessInterval ETV
vector 51 DatabaseNetwork.user[51] AccessInterval ETV
vector 52 DatabaseNetwork.user[52] AccessInterval ETV
vector 53 DatabaseNetwork.user[53] AccessInterval ETV
vector 54 DatabaseNetwork.user[54] AccessInterval ETV
vector 55 DatabaseNetwork.user[55] AccessInterval ETV
vector 56 DatabaseNetwork.user[56] AccessInterval ETV
vector 57 DatabaseNetwork.user[57] AccessInterval ETV
vector 58 DatabaseNetwork.user[58] AccessInterval ETV
vector 59 DatabaseNetwork.user[59] AccessInterval ETV
vector 60 DatabaseNetwork.user[60] AccessInterval ETV
vector 61 DatabaseNetwork.user[61] AccessInterval ETV
vector 62 DatabaseNetwork.user[62] AccessInterval ETV
vector 63 DatabaseNetwork.user[63] AccessInterval ETV
vector 64 DatabaseNetwork.user[64] AccessInterval ETV
vector 65 DatabaseNetwork.user[65] AccessInterval ETV
vector 66 DatabaseNetwork.user[66] AccessInterval ETV
vector 67 DatabaseNetwork.user[67] AccessInterval ETV
vector 68 DatabaseNetwork.user[68] AccessInterval ETV
vector 69 DatabaseNetwork.user[69] AccessInterval ETV
vector 70 DatabaseNetwork.user[70] AccessInterval ETV
vector 71 DatabaseNetwork.user[71] AccessInterval ETV
vector 72 DatabaseNetwork.user[72] AccessInterval ETV
vector 73 DatabaseNetwork.user[73] AccessInterval ETV
vector 74 DatabaseNetwork.user[74] AccessInterval ETV
vector 75 DatabaseNetwork.user[68] WriteAccesses ETV
vector 76 DatabaseNetwork.user[32] ReadAccesses ETV
vector 77 DatabaseNetwork.user[68] WaitTime ETV
vector 78 DatabaseNetwork.user[32] WaitTime ETV
vector 79 DatabaseNetwork.user[15] ReadAccesses ETV
vector 80 DatabaseNetwork.user[15] WaitTime ETV
vector 81 DatabaseNetwork.user[28] ReadAccesses ETV
vector 82 DatabaseNetwork.user[28] WaitTime ETV
vector 83 DatabaseNetwork.user[30] ReadAccesses ETV
vector 84 DatabaseNetwork.user[30] WaitTime ETV
vector 85 DatabaseNetwork.user[57] ReadAccesses ETV
vector 86 DatabaseNetwork.user[57] WaitTime ETV
vector 87 DatabaseNetwork.user[48] WriteAccesses ETV
vector 88 DatabaseNetwork.user[48] WaitTime ETV
vector 89 DatabaseNetwork.user[67] ReadAccesses ETV
vector 90 DatabaseNetwork.user[67] WaitTime ETV
vector 91 DatabaseNetwork.user[37] ReadAccesses ETV
vector 92 DatabaseNetwork.user[52] ReadAccesses ETV
vector 93 DatabaseNetwork.user[37] WaitTime ETV
vector 94 DatabaseNetwork.user[52] WaitTime ETV
vector 95 DatabaseNetwork.user[71] ReadAccesses ETV
vector 96 DatabaseNetwork.user[71] WaitTime ETV
vector 97 DatabaseNetwork.user[61] ReadAccesses ETV
vector 98 DatabaseNetwork.user[61] WaitTime ETV
vector 99 DatabaseNetwork.user[30] WriteAccesses ETV
vector 100 DatabaseNetwork.user[48] ReadAccesses ETV
vector 101 DatabaseNetwork.user[65] ReadAccesses ETV
vector 102 DatabaseNetwork.user[65] WaitTime ETV
vector 103 DatabaseNetwork.user[73] WriteAccesses ETV
vector 104 DatabaseNetwork.user[73] WaitTime ETV
vector 105 DatabaseNetwork.user[60] ReadAccesses ETV
vector 106 DatabaseNetwork.user[60] WaitTime ETV
vector 107 DatabaseNetwork.user[17] WriteAccesses ETV
vector 108 DatabaseNetwork.user[17] WaitTime ETV
vector 109 DatabaseNetwork.user[60] WriteAccesses ETV
vector 110 DatabaseNetwork.user[13] WriteAccesses ETV
vector 111 DatabaseNetwork.user[13] WaitTime ETV
vector 112 DatabaseNetwork.user[69] ReadAccesses ETV
vector 113 DatabaseNetwork.user[69] WaitTime ETV
vector 114 DatabaseNetwork.user[29] ReadAccesses ETV
vector 115 DatabaseNetwork.user[29] WaitTime ETV
vector 116 DatabaseNetwork.user[17] ReadAccesses ETV
vector 117 DatabaseNetwork.user[13] ReadAccesses ETV
vector 118 DatabaseNetwork.user[33] WriteAccesses ETV
vector 119 DatabaseNetwork.user[37] WriteAccesses ETV
vector 120 DatabaseNetwork.user[33] WaitTime ETV
vector 121 DatabaseNetwork.user[18] ReadAccesses ETV
vector 122 DatabaseNetwork.user[11] ReadAccesses ETV
vector 123 DatabaseNetwork.user[18] WaitTime ETV
vector 124 DatabaseNetwork.user[11] WaitTime ETV
vector 125 DatabaseNetwork.user[25] ReadAccesses ETV
vector 126 DatabaseNetwork.user[25] WaitTime ETV
vector 127 DatabaseNetwork.user[58] ReadAccesses ETV
vector 128 DatabaseNetwork.user[58] WaitTime ETV
vector 129 DatabaseNetwork.user[8] WriteAccesses ETV
vector 130 DatabaseNetwork.user[8] WaitTime ETV
vector 131 DatabaseNetwork.user[12] ReadAccesses ETV
vector 132 DatabaseNetwork.user[12] WaitTime ETV
vector 133 DatabaseNetwork.user[64] ReadAccesses ETV
vector 134 DatabaseNetwork.user[64] WaitTime ETV
vector 135 DatabaseNetwork.user[44] ReadAccesses ETV
vector 136 DatabaseNetwork.user[44] WaitTime ETV
vector 137 DatabaseNetwork.user[59] ReadAccesses ETV
vector 138 DatabaseNetwork.user[41] ReadAccesses ETV
vector 139 DatabaseNetwork.user[59] WaitTime ETV
vector 140 DatabaseNetwork.user[41] WaitTime ETV
vector 141 DatabaseNetwork.user[19] ReadAccesses ETV
vector 142 DatabaseNetwork.user[23] ReadAccesses ETV
vector 143 DatabaseNetwork.user[19] WaitTime ETV
vector 144 DatabaseNetwork.user[23] WaitTime ETV
vector 145 DatabaseNetwork.user[45] ReadAccesses ETV
vector 146 DatabaseNetwork.user[56] ReadAccesses ETV
vector 147 DatabaseNetwork.user[45] WaitTime ETV
vector 148 DatabaseNetwork.user[56] WaitTime ETV
vector 149 DatabaseNetwork.user[22] WriteAccesses ETV
vector 150 DatabaseNetwork.user[22] WaitTime ETV
vector 151 DatabaseNetwork.user[53] ReadAccesses ETV
vector 152 DatabaseNetwork.user[53] WaitTime ETV
vector 153 DatabaseNetwork.user[6] ReadAccesses ETV
vector 154 DatabaseNetwork.user[6] WaitTime ETV
vector 155 DatabaseNetwork.user[0] ReadAccesses ETV
vector 156 DatabaseNetwork.user[0] WaitTime ETV
vector 157 DatabaseNetwork.user[24] ReadAccesses ETV
vector 158 DatabaseNetwork.user[66] ReadAccesses ETV
vector 159 DatabaseNetwork.user[24] WaitTime ETV
vector 160 DatabaseNetwork.user[66] WaitTime ETV
vector 161 DatabaseNetwork.user[51] ReadAccesses ETV
vector 162 DatabaseNetwork.user[51] WaitTime ETV
vector 163 DatabaseNetwork.user[73] ReadAccesses ETV
vector 164 DatabaseNetwork.user[1] ReadAccesses ETV
vector 165 DatabaseNetwork.user[1] WaitTime ETV
vector 166 DatabaseNetwork.user[4] ReadAccesses ETV
vector 167 DatabaseNetwork.user[4] WaitTime ETV
vector 168 DatabaseNetwork.user[72] ReadAccesses ETV
vector 169 DatabaseNetwork.user[72] WaitTime ETV
vector 170 DatabaseNetwork.user[74] WriteAccesses ETV
vector 171 DatabaseNetwork.user[70] WriteAccesses ETV
vector 172 DatabaseNetwork.user[74] WaitTime ETV
vector 173 DatabaseNetwork.user[70] WaitTime ETV
vector 174 DatabaseNetwork.user[9] ReadAccesses ETV
vector 175 DatabaseNetwork.user[9] WaitTime ETV
vector 176 DatabaseNetwork.user[50] WriteAccesses ETV
vector 177 DatabaseNetwork.user[50] WaitTime ETV
vector 178 DatabaseNetwork.user[10] ReadAccesses ETV
vector 179 DatabaseNetwork.user[10] WaitTime ETV
vector 180 DatabaseNetwork.user[31] WriteAccesses ETV
vector 181 DatabaseNetwork.user[31] WaitTime ETV
vector 182 DatabaseNetwork.user[31] ReadAccesses ETV
vector 183 DatabaseNetwork.user[47] WriteAccesses ETV
vector 184 DatabaseNetwork.user[47] WaitTime ETV
vector 185 DatabaseNetwork.user[2] ReadAccesses ETV
vector 186 DatabaseNetwork.user[2] WaitTime ETV
vector 187 DatabaseNetwork.user[49] ReadAccesses ETV
vector 188 DatabaseNetwork.user[49] WaitTime ETV
vector 189 DatabaseNetwork.user[33] ReadAccesses ETV
vector 190 DatabaseNetwork.user[0] WriteAccesses ETV
vector 191 DatabaseNetwork.user[70] ReadAccesses ETV
vector 192 DatabaseNetwork.user[63] ReadAccesses ETV
vector 193 DatabaseNetwork.user[63] WaitTime ETV
vector 194 DatabaseNetwork.user[55] ReadAccesses ETV
vector 195 DatabaseNetwork.user[55] WaitTime ETV
vector 196 DatabaseNetwork.user[47] ReadAccesses ETV
vector 197 DatabaseNetwork.user[62] ReadAccesses ETV
vector 198 DatabaseNetwork.user[58] WriteAccesses ETV
vector 199 DatabaseNetwork.user[62] WaitTime ETV
vector 200 DatabaseNetwork.user[36] ReadAccesses ETV
vector 201 DatabaseNetwork.user[36] WaitTime ETV
vector 202 DatabaseNetwork.user[46] WriteAccesses ETV
vector 203 DatabaseNetwork.user[46] WaitTime ETV
vector 204 DatabaseNetwork.user[32] WriteAccesses ETV
vector 205 DatabaseNetwork.user[41] WriteAccesses ETV
vector 206 DatabaseNetwork.user[20] ReadAccesses ETV
vector 207 DatabaseNetwork.user[20] WaitTime ETV
vector 208 DatabaseNetwork.user[42] ReadAccesses ETV
vector 209 DatabaseNetwork.user[42] WaitTime ETV
vector 210 DatabaseNetwork.user[43] ReadAccesses ETV
vector 211 DatabaseNetwork.user[43] WaitTime ETV
vector 212 DatabaseNetwork.user[68] ReadAccesses ETV
vector 213 DatabaseNetwork.user[21] ReadAccesses ETV
vector 214 DatabaseNetwork.user[21] WaitTime ETV
vector 215 DatabaseNetwork.user[8] ReadAccesses ETV
vector 216 DatabaseNetwork.user[20] WriteAccesses ETV
vector 217 DatabaseNetwork.user[34] ReadAccesses ETV
vector 218 DatabaseNetwork.user[34] WaitTime ETV
vector 219 DatabaseNetwork.user[27] ReadAccesses ETV
vector 220 DatabaseNetwork.user[27] WaitTime ETV
vector 221 DatabaseNetwork.user[29] WriteAccesses ETV
vector 222 DatabaseNetwork.user[74] ReadAccesses ETV
vector 223 DatabaseNetwork.user[3] ReadAccesses ETV
vector 224 DatabaseNetwork.user[3] WaitTime ETV
vector 225 DatabaseNetwork.user[7] ReadAccesses ETV
vector 226 DatabaseNetwork.user[7] WaitTime ETV
vector 227 DatabaseNetwork.user[25] WriteAccesses ETV
vector 228 DatabaseNetwork.user[5] ReadAccesses ETV
vector 229 DatabaseNetwork.user[5] WaitTime ETV
vector 230 DatabaseNetwork.user[38] ReadAccesses ETV
vector 231 DatabaseNetwork.user[39] ReadAccesses ETV
vector 232 DatabaseNetwork.user[38] WaitTime ETV
vector 233 DatabaseNetwork.user[39] WaitTime ETV
vector 234 DatabaseNetwork.user[50] ReadAccesses ETV
vector 235 DatabaseNetwork.user[14] ReadAccesses ETV
vector 236 DatabaseNetwork.user[14] WaitTime ETV
vector 237 DatabaseNetwork.user[34] WriteAccesses ETV
vector 238 DatabaseNetwork.user[6] WriteAccesses ETV
vector 239 DatabaseNetwork.user[51] WriteAccesses ETV
vector 240 DatabaseNetwork.user[18] WriteAccesses ETV
vector 241 DatabaseNetwork.user[26] ReadAccesses ETV
vector 242 DatabaseNetwork.user[26] WaitTime ETV
vector 243 DatabaseNetwork.user[65] WriteAccesses ETV
vector 244 DatabaseNetwork.user[22] ReadAccesses ETV
vector 245 DatabaseNetwork.user[4] WriteAccesses ETV
vector 246 DatabaseNetwork.user[54] ReadAccesses ETV
vector 247 DatabaseNetwork.user[38] WriteAccesses ETV
vector 248 DatabaseNetwork.user[54] WaitTime ETV
vector 249 DatabaseNetwork.user[67] WriteAccesses ETV
vector 250 DatabaseNetwork.user[7] WriteAccesses ETV
vector 251 DatabaseNetwork.user[1] WriteAccesses ETV
vector 252 DatabaseNetwork.user[35] ReadAccesses ETV
vector 253 DatabaseNetwork.user[35] WaitTime ETV
vector 254 DatabaseNetwork.user[36] WriteAccesses ETV
vector 255 DatabaseNetwork.user[44] WriteAccesses ETV
vector 256 DatabaseNetwork.user[16] WriteAccesses ETV
vector 257 DatabaseNetwork.user[21] WriteAccesses ETV
vector 258 DatabaseNetwork.user[16] WaitTime ETV
vector 259 DatabaseNetwork.user[46] ReadAccesses ETV
vector 260 DatabaseNetwork.user[43] WriteAccesses ETV
vector 261 DatabaseNetwork.user[16] ReadAccesses ETV
vector 262 DatabaseNetwork.user[40] WriteAccesses ETV
vector 263 DatabaseNetwork.user[40] WaitTime ETV
vector 264 DatabaseNetwork.user[42] WriteAccesses ETV
vector 265 DatabaseNetwork.user[19] WriteAccesses ETV
vector 266 DatabaseNetwork.user[14] WriteAccesses ETV
vector 267 DatabaseNetwork.user[62] WriteAccesses ETV
vector 268 DatabaseNetwork.user[57] WriteAccesses ETV
vector 269 DatabaseNetwork.user[55] WriteAccesses ETV
vector 270 DatabaseNetwork.user[40] ReadAccesses ETV
vector 271 DatabaseNetwork.user[54] WriteAccesses ETV
vector 272 DatabaseNetwork.user[66] WriteAccesses ETV
vector 273 DatabaseNetwork.user[61] WriteAccesses ETV
vector 274 DatabaseNetwork.user[69] WriteAccesses ETV
vector 275 DatabaseNetwork.user[64] WriteAccesses ETV
vector 276 DatabaseNetwork.user[49] WriteAccesses ETV
vector 277 DatabaseNetwork.user[71] WriteAccesses ETV
vector 278 DatabaseNetwork.user[26] WriteAccesses ETV
vector 279 DatabaseNetwork.user[63] WriteAccesses ETV
vector 280 DatabaseNetwork.user[2] WriteAccesses ETV
vector 281 DatabaseNetwork.user[35] WriteAccesses ETV
vector 282 DatabaseNetwork.user[9] WriteAccesses ETV
vector 283 DatabaseNetwork.user[28] WriteAccesses ETV
vector 284 DatabaseNetwork.user[39] WriteAccesses ETV
vector 285 DatabaseNetwork.user[59] WriteAccesses ETV
vector 286 DatabaseNetwork.user[10] WriteAccesses ETV
vector 287 DatabaseNetwork.user[45] WriteAccesses ETV
vector 288 DatabaseNetwork.user[24] WriteAccesses ETV
vector 289 DatabaseNetwork.user[53] WriteAccesses ETV
vector 290 DatabaseNetwork.user[23] WriteAccesses ETV
vector 291 DatabaseNetwork.user[12] WriteAccesses ETV
vector 292 DatabaseNetwork.user[11] WriteAccesses ETV
vector 293 DatabaseNetwork.user[52] WriteAccesses ETV
vector 294 DatabaseNetwork.user[5] WriteAccesses ETV
vector 295 DatabaseNetwork.user[72] WriteAccesses ETV
vector 296 DatabaseNetwork.user[15] WriteAccesses ETV
vector 297 DatabaseNetwork.user[27] WriteAccesses ETV
vector 298 DatabaseNetwork.user[3] WriteAccesses ETV
vector 299 DatabaseNetwork.user[56] WriteAccesses ETV
0	16858 21848 0 149721 0 9959.968586830927 521 0.016324666065416 200.90773806925 10020.787874169 414390.92581083
1	38706 19693 0 150273 0 9992.890239597777 470 0.04823948818536 144.31874454583 10003.835219677 434949.77883576
2	58399 20851 0 150065 0 9979.937349508371 497 0.022234512327409 102.30968960998 10001.264753825 379977.20849042
3	79250 21705 0 150131 0 9986.293455929678 517 0.038437493478395 126.38776292013 10010.428150103 366494.09117876
4	100955 20874 0 149813 0 9963.90747063769 498 0.0046121896988686 137.53847142684 10006.971327058 398137.50637717
5	121829 21702 0 150231 0 9991.697826074602 517 0.031148186277714 118.40717027518 10018.790964922 370664.72779578
6	143531 21397 0 150317 0 9995.636622432305 510 0.043065496084494 204.64964248338 10043.281436165 426379.08171802
7	164928 18405 0 150147 0 9987.273631735589 439 0.034493249538614 165.59305831319 10083.491290118 468780.7311742
8	183333 20956 0 150159 0 9987.890175475228 499 0.046807814004613 162.80142477847 10082.763145395 420333.50343771
9	204289 20753 0 150311 0 9995.388178887877 494 0.0055832478280741 178.29278414814 10016.40478622 401688.45618581
10	225042 22035 0 150357 0 9998.081748703167 513 0.040206886867987 176.81341139957 10013.19114826 393007.44259714
11	247077 23050 0 150365 0 9998.675623561757 536 0.043612164345251 91.492945100389 10024.474050474 349339.28044174
12	270127 20459 0 150137 0 9986.865285373136 477 0.011251370960073 125.50620882393 10012.436550149 403635.10216376
13	290586 20687 0 149713 0 9959.495661129633 482 0.0416840892027 191.6704229798 10005.833037705 422678.00864567
14	311273 21980 0 149985 0 9975.583558247712 512 0.007807497018358 153.43054354317 10009.944208143 386139.70386637
15	333253 21224 0 150301 0 9995.122548676202 495 0.037084192447101 144.66936905597 10010.767229982 413604.69601745
16	354477 22107 0 150257 0 9992.443762873818 515 0.017276452707786 153.32647952234 10008.256821276 397325.09093436
17	376584 21302 0 150277 0 9993.668949848185 496 0.035010388751127 159.57446540195 10011.671024126 429123.51819051
18	397886 22630 0 149841 0 9965.157198696767 527 0.019907196493591 92.848693119324 10011.658804007 364341.33664443
19	420516 21702 0 150171 0 9988.375715596136 507 0.143997811149 121.37340858785 10012.638355309 399809.8548971
20	442218 21570 0 150217 0 9991.124846550566 502 0.018073847683459 149.59245971761 10013.214383224 447587.49203015
21	463788 20950 0 149623 0 9954.076940780822 488 0.0789618807726 138.72292361793 10026.080282273 390593.31377469
22	484738 21841 0 150207 0 9990.679183855935 508 0.033731377291191 132.65837120972 10017.652502689 391357.11144841
23	506579 22163 0 150339 0 9997.592430274607 516 0.036066474254174 113.51875792332 10011.038722869 385227.28665497
24	528742 22208 0 149857 0 9965.729274261572 517 0.02036315120036 120.53877651949 10004.394133781 379244.2756967
25	550950 23155 0 149973 0 9975.376603470999 539 0.029855785494506 123.91820237444 10009.328464433 385859.62678149
26	574105 21570 0 150087 0 9981.210452464281 502 0.0073483533488939 110.53171319636 10013.438251423 394774.77513962
27	595675 23059 0 150073 0 9980.593993656225 537 0.0081806408265489 92.669542204624 10028.563859067 352140.88704336
28	618734 22275 0 150321 0 9995.90356555934 519 0.032654957791945 154.68347500078 10000.169860195 378954.51839744
29	641009 22707 0 150221 0 9991.338913660652 530 0.071950049543838 122.95413310418 10007.703447456 385202.52393273
30	663716 21657 0 149941 0 9971.856160138456 504 0.0050775725532611 124.83668197291 10015.92401604 426601.06631038
31	685373 22219 0 150369 0 9998.83331731184 517 0.0033290940215248 120.28427124968 10081.142675298 398973.54435595
32	707592 22281 0 150195 0 9989.756096922446 519 0.068832049092755 121.60436345817 10005.908030716 397919.04604854
33	729873 21929 0 149953 0 9973.073972714295 511 0.012874257070086 128.19883784404 10032.033244717 379442.96637751
34	751802 21969 0 149301 0 9935.230100428526 512 0.067102288668956 214.44649959218 10014.299464893 444295.29224609
35	773771 21816 0 150391 0 9999.910416719783 508 0.0061316780246918 170.50320494408 10005.610149085 400017.24981916
36	795587 21438 0 149725 0 9960.020236647952 499 0.01456637332252 139.43972197499 10000.632615462 402780.20548807
37	817025 21108 0 149795 0 9962.811249064045 492 0.091311152951707 133.67797967038 10044.071746244 425079.51075052
38	838133 21979 0 150205 0 9990.590193617177 512 0.020891042801284 135.44416845697 10016.207158832 409541.32498768
39	860112 21459 0 149913 0 9969.821262825341 499 0.001585266979378 198.30021311223 10008.103114331 421045.50372151
40	881571 23052 0 150333 0 9996.65393417407 536 0.008774820326736 141.2338959004 10001.749370457 381868.00006282
41	904623 22143 0 150093 0 9981.362423980037 516 0.098064245793212 176.8622167012 10032.656664685 443447.24022753
42	926766 21500 0 150305 0 9995.223249009533 501 0.049754204801472 135.06057289293 10035.556613326 406456.98435902
43	948266 21631 0 150049 0 9978.93381611553 504 0.12514607117472 111.20228169734 10000.592474588 382825.66537624
44	969897 20989 0 150293 0 9994.840296661769 489 0.033300114077984 114.28928254641 10006.415927737 402055.25018743
45	990886 21389 0 150061 0 9979.385948138739 498 0.041211293072362 111.39031004196 10090.776258181 389223.38472048
46	1012275 22606 0 149945 0 9972.760718993351 526 0.0093285186179064 133.40012538787 10003.212250954 385704.61089617
47	1034881 22159 0 150389 0 9999.896549106917 516 0.019945945503924 130.3406716543 10032.863548441 377041.539126
48	1057040 21776 0 149329 0 9936.418575531333 508 0.010104268010133 154.59550872673 10005.232816461 406539.98393772
49	1078816 21135 0 150351 0 9997.957896130813 493 0.018076732733055 163.4571110541 10000.374108515 406824.79639084
50	1099951 20310 0 149763 0 9961.167307039344 472 0.010922399181869 124.521363989 10027.833289042 404916.9358598
51	1120261 21453 0 150187 0 9989.330208971631 500 0.0041889548301758 160.78274825744 10040.099839854 403506.627635
52	1141714 20142 0 150377 0 9999.275809447846 469 0.0014739933613401 197.47665962423 10009.681477183 456749.86946434
53	1161856 21353 0 150329 0 9996.233162612046 497 0.12351063390079 134.77878785293 10030.697759293 402304.89155724
54	1183209 21353 0 150309 0 9995.373653565506 496 0.066334767460914 99.383459043025 10045.252827333 375138.19655777
55	1204562 20632 0 150101 0 9982.241335483275 481 0.076668515406118 167.60091776655 10012.077182215 433886.82244138
56	1225194 21357 0 150383 0 9999.432454140624 497 0.09857686365322 159.17170876981 10004.399862834 415292.88669508
57	1246551 22540 0 150039 0 9977.621765558244 525 0.064712335548366 147.71344629258 10028.630449437 359859.10830022
58	1269091 20551 0 150281 0 9994.347374279868 479 0.052566173685629 145.69041571652 10018.374253342 412451.52392497
59	1289642 21976 0 150125 0 9984.726969662455 512 0.028494941613926 125.40878956527 10026.913512915 376422.33268713
60	1311618 22490 0 150253 0 9992.187744323216 524 0.049394209567622 148.30804295646 10004.754872989 368469.06037039
61	1334108 21413 0 149987 0 9975.645622176414 499 0.041984351019171 135.44875580603 10091.014666061 413838.17354367
62	1355521 20439 0 150045 0 9977.845505107081 476 0.027686252121673 142.67619229144 10011.830249377 433150.17468527
63	1375960 21653 0 150337 0 9997.505978391109 504 0.10744082758189 103.69322206006 10012.744461107 374106.14304888
64	1397613 21363 0 150373 0 9999.118776259833 497 0.039281443077528 126.65235574897 10125.771132009 409490.34636623
65	1418976 20932 0 150263 0 9992.764024143444 488 0.094670379165322 149.11005162809 10009.264577795 416987.28022045
66	1439908 23890 0 149751 0 9960.754837242028 557 0.0068878833115499 111.70321010901 10007.995476936 361312.35829534
67	1463798 21551 0 149831 0 9964.511957862268 502 0.015059706240431 145.78036621451 10032.624515986 389427.77288677
68	1485349 21648 0 150381 0 9999.404176216448 504 0.035814424929067 138.5564322301 10017.205553123 382823.39601994
69	1506997 20808 0 150033 0 9977.448028384624 484 0.040257433533116 177.15348501015 10024.402052845 432364.6070345
70	1527805 20594 0 150361 0 9998.427995274614 479 0.0093067527846198 109.01856561364 10004.037327084 392702.3839779
71	1548399 20150 0 149789 0 9962.363006031291 470 0.054591780595868 172.79477405003 10006.941476407 443181.1559588
72	1568549 19828 0 150117 0 9983.852998772743 462 0.0018170602869872 134.28334134516 10011.889075456 435691.95589949
73	1588377 20476 0 149979 0 9975.443644051102 477 0.0041395145915618 151.18547010785 10018.828107433 403400.10109527
74	1608853 20734 0 150023 0 9977.238029425279 483 0.016413200170964 166.9434339327 10000.578894511 408501.37870754
75	1629587 3246 1 149553 0.379371384022 9949.981354532262 112 1 1 112 112
76	1632833 11954 3 150195 0.408511767981 9989.756096922446 412 1 1 412 412
77	1644787 22365 6 150386 0.479371384022 9999.504176216448 503 0.099999999998545 0.18976444841246 50.824083976514 5.1687084527933
78	1667152 22978 8 150200 0.508511767981 9989.856096922446 518 0.099999999998545 0.17999366039601 52.122845271039 5.2642985962782
79	1690130 11871 9 150301 1.167693381862 9995.122548676202 410 1 1 410 410
80	1702001 21839 12 150304 1.267693381862 9995.222548676202 494 0.099999999998545 0.19305873816757 49.661824093075 5.013929413544
81	1723840 11583 13 150321 1.473707109302 9995.90356555934 399 1 1 399 399
82	1735423 22994 16 150324 1.573707109302 9996.00356555934 518 0.099999999998545 0.19755483053632 52.160282011688 5.2847162446107
83	1758417 11812 17 149093 1.823220522486 9921.300791410065 406 1 1 406 406
84	1770229 22338 20 149944 1.923220522486 9971.956160138456 503 0.099999999998545 0.19784645475011 50.51923995701 5.0913282923844
85	1792567 12150 21 150039 2.238923212653 9977.621765558244 419 1 1 419 419
86	1804717 23268 24 150044 2.338923212653 9977.721765558244 524 0.099999999998545 0.19682103320406 52.828326571603 5.3562024079013
87	1827985 2830 29 146821 2.517488188761 9755.359603860606 98 1 1 98 98
88	1830815 22427 32 149336 2.617488188761 9936.518575531333 507 0.099999999998545 0.18989573198996 50.923011079487 5.1296313125438
89	1853242 11397 33 149831 2.905560545844 9964.511957862268 393 1 1 393 393
90	1864639 22224 36 149836 3.005560545844 9964.611957862268 501 0.099999999998545 0.19240681248266 50.634310537229 5.1489693817013
91	1886863 11270 37 149795 3.0246170733 9962.811249064045 388 1 1 388 388
92	1898133 11237 39 150377 3.094593610001 9999.275809447846 387 1 1 387 387
93	1909370 21795 42 149800 3.1246170733 9962.911249064045 491 0.099999999998545 0.17626762616101 49.281107325475 4.9554283698287
94	1931165 20764 44 150380 3.194593610001 9999.375809447846 468 0.099999999998545 0.1824036252965 47.229076342763 4.7973349131883
95	1951929 10838 45 149789 3.242729788919 9962.363006031291 374 1 1 374 374
96	1962767 20818 48 149792 3.342729788919 9962.463006031291 469 0.099999999998545 0.22918249810391 47.144703272036 4.7622939003843
97	1983585 11693 49 149987 4.12406564061 9975.645622176414 403 1 1 403 403
98	1995278 22107 52 149994 4.22406564061 9975.745622176414 498 0.099999999998545 0.26314522542634 50.182330634184 5.0939701784816
99	2017385 2804 53 149941 4.583794291055 9971.856160138456 97 1 1 97 97
100	2020189 12260 55 149329 4.670190351882 9936.418575531333 409 1 1 409 409
101	2032449 11351 61 150263 4.88096981473 9992.764024143444 379 1 1 379 379
102	2043800 22034 64 150270 4.98096981473 9992.864024143444 487 0.099999999998545 0.18788047159796 48.787880471596 4.8952990716075
103	2065834 2976 65 149475 5.028838641496 9944.661980239758 99 1 1 99 99
104	2068810 21593 68 149984 5.128838641496 9975.543644051102 476 0.099999999998545 0.18335627003762 47.91746409553 4.8413040128863
105	2090403 12497 73 150253 6.145607043051 9992.187744323216 417 1 1 417 417
106	2102900 23735 76 150256 6.245607043051 9992.287744323216 523 0.099999999998545 0.18213524582734 52.661210538939 5.3237929674829
107	2126635 2942 77 149293 6.367122816836 9934.879681133602 98 1 1 98 98
108	2129577 22474 82 150280 6.467122816836 9993.768949848185 495 0.099999999998545 0.17903529339583 49.855504058238 5.0452666711123
109	2152051 3191 91 150223 6.945133024217 9991.406205374094 106 1 1 106 106
110	2155242 2522 97 147315 7.06318278275 9788.883444937192 84 1 1 84 84
111	2157764 21833 102 149716 7.16318278275 9959.595661129633 481 0.099999999998545 0.19030043113708 48.391963171202 4.8842304237764
112	2179597 11971 105 150033 7.835416213534 9977.448028384624 398 1 1 398 398
113	2191568 21961 108 150036 7.935416213534 9977.548028384624 483 0.099999999998545 0.21430287635212 48.842183505774 4.9814050238738
114	2213529 12923 109 150221 8.231559924852 9991.338913660652 431 1 1 431 431
115	2226452 23948 112 150226 8.331559924852 9991.438913660652 529 0.099999999998545 0.19347506823306 53.170321491968 5.3628462346974
116	2250400 11941 119 150277 8.92825812306 9993.668949848185 397 1 1 397 397
117	2262341 11924 129 149713 9.036188951115 9959.495661129633 397 1 1 397 397
118	2274265 3047 137 145903 9.184962745104 9697.68382745476 102 1 1 102 102
119	2277312 3095 139 147465 9.272476914557 9800.758972606686 103 1 1 103 103