file 2919759 1767629712                                         
version 3
run Lognormal-13-20260105-17:15:12-28123
attr configname Lognormal
attr datetime 20260105-17:15:12
attr datetimef 20260105-171512
attr experiment Lognormal
attr inifile omnetpp.ini
attr iterationvars "$N=50, $p=0.7"
attr iterationvarsd N=50/p=0.7
attr iterationvarsf N=50,p=0.7-
attr measurement "$N=50, $p=0.7"
attr network progetto.DatabaseNetwork
attr processid 28123
attr repetition 3
attr replication #3
attr resultdir results
attr runnumber 13
attr seedset 3
itervar N 50
itervar p 0.7
config description "Lognormal distribution (hotspots) - varia N e p"
config *.user[*].tableDistribution "\"lognormal\""
config *.user[*].lognormalM 1.5
config *.user[*].lognormalS 1.0
config *.numUsers 50
config *.user[*].readProbability 0.7
config network progetto.DatabaseNetwork
config sim-time-limit 10000s
config cpu-time-limit 3600s
config repeat 5
config seed-set 3
config output-vector-file "results/Lognormal-$N=50, $p=0.7-3.vec"
config output-scalar-file "results/Lognormal-$N=50, $p=0.7-3.sca"
config result-dir results
config **.vector-recording true
config **.scalar-recording true
config *.numTables 20
config *.user[*].lambda 0.05
config *.user[*].serviceTime 0.1s

vector 0 DatabaseNetwork.user[0] AccessInterval ETV
vector 1 DatabaseNetwork.user[1] AccessInterval ETV
vector 2 DatabaseNetwork.user[2] AccessInterval ETV
vector 3 DatabaseNetwork.user[3] AccessInterval ETV
vector 4 DatabaseNetwork.user[4] AccessInterval ETV
vector 5 DatabaseNetwork.user[5] AccessInterval ETV
vector 6 DatabaseNetwork.user[6] AccessInterval ETV
vector 7 DatabaseNetwork.user[7] AccessInterval ETV
vector 8 DatabaseNetwork.user[8] AccessInterval ETV
vector 9 DatabaseNetwork.user[9] AccessInterval ETV
vector 10 DatabaseNetwork.user[10] AccessInterval ETV
vector 11 DatabaseNetwork.user[11] AccessInterval ETV
vector 12 DatabaseNetwork.user[12] AccessInterval ETV
vector 13 DatabaseNetwork.user[13] AccessInterval ETV
vector 14 DatabaseNetwork.user[14] AccessInterval ETV
vector 15 DatabaseNetwork.user[15] AccessInterval ETV
vector 16 DatabaseNetwork.user[16] AccessInterval ETV
vector 17 DatabaseNetwork.user[17] AccessInterval ETV
vector 18 DatabaseNetwork.user[18] AccessInterval ETV
vector 19 DatabaseNetwork.user[19] AccessInterval ETV
vector 20 DatabaseNetwork.user[20] AccessInterval ETV
vector 21 DatabaseNetwork.user[21] AccessInterval ETV
vector 22 DatabaseNetwork.user[22] AccessInterval ETV
vector 23 DatabaseNetwork.user[23] AccessInterval ETV
vector 24 DatabaseNetwork.user[24] AccessInterval ETV
vector 25 DatabaseNetwork.user[25] AccessInterval ETV
vector 26 DatabaseNetwork.user[26] AccessInterval ETV
vector 27 DatabaseNetwork.user[27] AccessInterval ETV
vector 28 DatabaseNetwork.user[28] AccessInterval ETV
vector 29 DatabaseNetwork.user[29] AccessInterval ETV
vector 30 DatabaseNetwork.user[30] AccessInterval ETV
vector 31 DatabaseNetwork.user[31] AccessInterval ETV
vector 32 DatabaseNetwork.user[32] AccessInterval ETV
vector 33 DatabaseNetwork.user[33] AccessInterval ETV
vector 34 DatabaseNetwork.user[34] AccessInterval ETV
vector 35 DatabaseNetwork.user[35] AccessInterval ETV
vector 36 DatabaseNetwork.user[36] AccessInterval ETV
vector 37 DatabaseNetwork.user[37] AccessInterval ETV
vector 38 DatabaseNetwork.user[38] AccessInterval ETV
vector 39 DatabaseNetwork.user[39] AccessInterval ETV
vector 40 DatabaseNetwork.user[40] AccessInterval ETV
vector 41 DatabaseNetwork.user[41] AccessInterval ETV
vector 42 DatabaseNetwork.user[42] AccessInterval ETV
vector 43 DatabaseNetwork.user[43] AccessInterval ETV
vector 44 DatabaseNetwork.user[44] AccessInterval ETV
vector 45 DatabaseNetwork.user[45] AccessInterval ETV
vector 46 DatabaseNetwork.user[46] AccessInterval ETV
vector 47 DatabaseNetwork.user[47] AccessInterval ETV
vector 48 DatabaseNetwork.user[48] AccessInterval ETV
vector 49 DatabaseNetwork.user[49] AccessInterval ETV
vector 50 DatabaseNetwork.user[11] ReadAccesses ETV
vector 51 DatabaseNetwork.user[11] WaitTime ETV
vector 52 DatabaseNetwork.user[32] ReadAccesses ETV
vector 53 DatabaseNetwork.user[32] WaitTime ETV
vector 54 DatabaseNetwork.user[20] WriteAccesses ETV
vector 55 DatabaseNetwork.user[20] WaitTime ETV
vector 56 DatabaseNetwork.user[13] WriteAccesses ETV
vector 57 DatabaseNetwork.user[13] WaitTime ETV
vector 58 DatabaseNetwork.user[16] ReadAccesses ETV
vector 59 DatabaseNetwork.user[16] WaitTime ETV
vector 60 DatabaseNetwork.user[1] ReadAccesses ETV
vector 61 DatabaseNetwork.user[1] WaitTime ETV
vector 62 DatabaseNetwork.user[17] ReadAccesses ETV
vector 63 DatabaseNetwork.user[17] WaitTime ETV
vector 64 DatabaseNetwork.user[5] ReadAccesses ETV
vector 65 DatabaseNetwork.user[12] ReadAccesses ETV
vector 66 DatabaseNetwork.user[5] WaitTime ETV
vector 67 DatabaseNetwork.user[12] WaitTime ETV
vector 68 DatabaseNetwork.user[21] ReadAccesses ETV
vector 69 DatabaseNetwork.user[21] WaitTime ETV
vector 70 DatabaseNetwork.user[46] ReadAccesses ETV
vector 71 DatabaseNetwork.user[46] WaitTime ETV
vector 72 DatabaseNetwork.user[20] ReadAccesses ETV
vector 73 DatabaseNetwork.user[14] ReadAccesses ETV
vector 74 DatabaseNetwork.user[14] WaitTime ETV
vector 75 DatabaseNetwork.user[25] ReadAccesses ETV
vector 76 DatabaseNetwork.user[25] WaitTime ETV
vector 77 DatabaseNetwork.user[15] WriteAccesses ETV
vector 78 DatabaseNetwork.user[15] WaitTime ETV
vector 79 DatabaseNetwork.user[36] ReadAccesses ETV
vector 80 DatabaseNetwork.user[36] WaitTime ETV
vector 81 DatabaseNetwork.user[45] ReadAccesses ETV
vector 82 DatabaseNetwork.user[26] ReadAccesses ETV
vector 83 DatabaseNetwork.user[45] WaitTime ETV
vector 84 DatabaseNetwork.user[26] WaitTime ETV
vector 85 DatabaseNetwork.user[40] ReadAccesses ETV
vector 86 DatabaseNetwork.user[40] WaitTime ETV
vector 87 DatabaseNetwork.user[4] WriteAccesses ETV
vector 88 DatabaseNetwork.user[4] WaitTime ETV
vector 89 DatabaseNetwork.user[41] ReadAccesses ETV
vector 90 DatabaseNetwork.user[41] WaitTime ETV
vector 91 DatabaseNetwork.user[27] WriteAccesses ETV
vector 92 DatabaseNetwork.user[27] WaitTime ETV
vector 93 DatabaseNetwork.user[37] ReadAccesses ETV
vector 94 DatabaseNetwork.user[37] WaitTime ETV
vector 95 DatabaseNetwork.user[38] ReadAccesses ETV
vector 96 DatabaseNetwork.user[38] WaitTime ETV
vector 97 DatabaseNetwork.user[9] ReadAccesses ETV
vector 98 DatabaseNetwork.user[9] WaitTime ETV
vector 99 DatabaseNetwork.user[44] ReadAccesses ETV
vector 100 DatabaseNetwork.user[18] ReadAccesses ETV
vector 101 DatabaseNetwork.user[44] WaitTime ETV
vector 102 DatabaseNetwork.user[18] WaitTime ETV
vector 103 DatabaseNetwork.user[23] ReadAccesses ETV
vector 104 DatabaseNetwork.user[16] WriteAccesses ETV
vector 105 DatabaseNetwork.user[47] WriteAccesses ETV
vector 106 DatabaseNetwork.user[23] WaitTime ETV
vector 107 DatabaseNetwork.user[22] WriteAccesses ETV
vector 108 DatabaseNetwork.user[22] WaitTime ETV
vector 109 DatabaseNetwork.user[47] WaitTime ETV
vector 110 DatabaseNetwork.user[46] WriteAccesses ETV
vector 111 DatabaseNetwork.user[29] ReadAccesses ETV
vector 112 DatabaseNetwork.user[29] WaitTime ETV
vector 113 DatabaseNetwork.user[6] ReadAccesses ETV
vector 114 DatabaseNetwork.user[6] WaitTime ETV
vector 115 DatabaseNetwork.user[37] WriteAccesses ETV
vector 116 DatabaseNetwork.user[48] ReadAccesses ETV
vector 117 DatabaseNetwork.user[48] WaitTime ETV
vector 118 DatabaseNetwork.user[0] WriteAccesses ETV
vector 119 DatabaseNetwork.user[39] ReadAccesses ETV
vector 120 DatabaseNetwork.user[0] WaitTime ETV
vector 121 DatabaseNetwork.user[39] WaitTime ETV
vector 122 DatabaseNetwork.user[34] ReadAccesses ETV
vector 123 DatabaseNetwork.user[34] WaitTime ETV
vector 124 DatabaseNetwork.user[7] ReadAccesses ETV
vector 125 DatabaseNetwork.user[7] WaitTime ETV
vector 126 DatabaseNetwork.user[43] ReadAccesses ETV
vector 127 DatabaseNetwork.user[43] WaitTime ETV
vector 128 DatabaseNetwork.user[30] ReadAccesses ETV
vector 129 DatabaseNetwork.user[30] WaitTime ETV
vector 130 DatabaseNetwork.user[17] WriteAccesses ETV
vector 131 DatabaseNetwork.user[15] ReadAccesses ETV
vector 132 DatabaseNetwork.user[24] WriteAccesses ETV
vector 133 DatabaseNetwork.user[30] WriteAccesses ETV
vector 134 DatabaseNetwork.user[24] WaitTime ETV
vector 135 DatabaseNetwork.user[5] WriteAccesses ETV
vector 136 DatabaseNetwork.user[28] WriteAccesses ETV
vector 137 DatabaseNetwork.user[28] WaitTime ETV
vector 138 DatabaseNetwork.user[42] WriteAccesses ETV
vector 139 DatabaseNetwork.user[42] WaitTime ETV
vector 140 DatabaseNetwork.user[19] ReadAccesses ETV
vector 141 DatabaseNetwork.user[19] WaitTime ETV
vector 142 DatabaseNetwork.user[7] WriteAccesses ETV
vector 143 DatabaseNetwork.user[2] ReadAccesses ETV
vector 144 DatabaseNetwork.user[2] WaitTime ETV
vector 145 DatabaseNetwork.user[49] WriteAccesses ETV
vector 146 DatabaseNetwork.user[49] WaitTime ETV
vector 147 DatabaseNetwork.user[41] WriteAccesses ETV
vector 148 DatabaseNetwork.user[33] ReadAccesses ETV
vector 149 DatabaseNetwork.user[33] WaitTime ETV
vector 150 DatabaseNetwork.user[12] WriteAccesses ETV
vector 151 DatabaseNetwork.user[40] WriteAccesses ETV
vector 152 DatabaseNetwork.user[48] WriteAccesses ETV
vector 153 DatabaseNetwork.user[13] ReadAccesses ETV
vector 154 DatabaseNetwork.user[3] ReadAccesses ETV
vector 155 DatabaseNetwork.user[3] WaitTime ETV
vector 156 DatabaseNetwork.user[49] ReadAccesses ETV
vector 157 DatabaseNetwork.user[44] WriteAccesses ETV
vector 158 DatabaseNetwork.user[14] WriteAccesses ETV
vector 159 DatabaseNetwork.user[25] WriteAccesses ETV
vector 160 DatabaseNetwork.user[0] ReadAccesses ETV
vector 161 DatabaseNetwork.user[45] WriteAccesses ETV
vector 162 DatabaseNetwork.user[21] WriteAccesses ETV
vector 163 DatabaseNetwork.user[8] ReadAccesses ETV
vector 164 DatabaseNetwork.user[8] WaitTime ETV
vector 165 DatabaseNetwork.user[10] WriteAccesses ETV
vector 166 DatabaseNetwork.user[10] WaitTime ETV
vector 167 DatabaseNetwork.user[27] ReadAccesses ETV
vector 168 DatabaseNetwork.user[31] ReadAccesses ETV
vector 169 DatabaseNetwork.user[31] WaitTime ETV
vector 170 DatabaseNetwork.user[22] ReadAccesses ETV
vector 171 DatabaseNetwork.user[32] WriteAccesses ETV
vector 172 DatabaseNetwork.user[6] WriteAccesses ETV
vector 173 DatabaseNetwork.user[28] ReadAccesses ETV
vector 174 DatabaseNetwork.user[43] WriteAccesses ETV
vector 175 DatabaseNetwork.user[24] ReadAccesses ETV
vector 176 DatabaseNetwork.user[29] WriteAccesses ETV
vector 177 DatabaseNetwork.user[35] WriteAccesses ETV
vector 178 DatabaseNetwork.user[35] WaitTime ETV
vector 179 DatabaseNetwork.user[42] ReadAccesses ETV
vector 180 DatabaseNetwork.user[39] WriteAccesses ETV
vector 181 DatabaseNetwork.user[35] ReadAccesses ETV
vector 182 DatabaseNetwork.user[4] ReadAccesses ETV
vector 183 DatabaseNetwork.user[19] WriteAccesses ETV
vector 184 DatabaseNetwork.user[38] WriteAccesses ETV
vector 185 DatabaseNetwork.user[26] WriteAccesses ETV
vector 186 DatabaseNetwork.user[33] WriteAccesses ETV
vector 187 DatabaseNetwork.user[23] WriteAccesses ETV
vector 188 DatabaseNetwork.user[9] WriteAccesses ETV
vector 189 DatabaseNetwork.user[10] ReadAccesses ETV
vector 190 DatabaseNetwork.user[36] WriteAccesses ETV
vector 191 DatabaseNetwork.user[18] WriteAccesses ETV
vector 192 DatabaseNetwork.user[47] ReadAccesses ETV
vector 193 DatabaseNetwork.user[3] WriteAccesses ETV
vector 194 DatabaseNetwork.user[1] WriteAccesses ETV
vector 195 DatabaseNetwork.user[2] WriteAccesses ETV
vector 196 DatabaseNetwork.user[31] WriteAccesses ETV
vector 197 DatabaseNetwork.user[11] WriteAccesses ETV
vector 198 DatabaseNetwork.user[34] WriteAccesses ETV
vector 199 DatabaseNetwork.user[8] WriteAccesses ETV
0	11583 21471 0 99815 0 9987.602127316908 516 0.007479047717128 123.11526786441 10045.526072871 395750.6389026
1	33054 22162 0 99651 0 9972.227242901826 533 0.10226643015829 142.88426527076 10003.718048379 364204.97718744
2	55216 19825 0 99945 0 9998.728044113561 477 0.010712593799817 122.6721385108 10016.419924069 408962.23464714
3	75041 21097 0 99925 0 9997.850736889837 508 0.0800429180904 110.92709704499 10007.345633911 384795.96542343
4	96138 20185 0 99533 0 9961.34352252844 485 0.062252596247073 120.40094958465 10014.7654703 406203.78083341
5	116323 20183 0 99357 0 9941.854728914283 486 0.019894816216929 151.20854967726 10040.919574854 452421.95571533
6	136506 21301 0 99929 0 9998.099996706859 512 0.028152853028963 225.05446074172 10013.381558753 406998.63443719
7	157807 20302 0 99869 0 9991.918063346884 489 0.15189117821864 132.97416330326 10001.927469702 400778.06059494
8	178109 20770 0 99601 0 9968.098654266964 500 0.042157302490277 128.48635673662 10038.296916539 392566.51314113
9	198879 20724 0 99525 0 9960.55149879044 498 0.063928200683529 160.10904199969 10076.598842377 448017.40443294
10	219603 20372 0 99581 0 9967.563664546412 479 0.037770127354026 105.51231843107 10013.455582788 399656.93108644
11	239975 21900 0 99173 0 9928.15334238658 514 0.038584006938171 110.1057803554 10002.197522767 395836.90421621
12	261875 20168 0 99893 0 9993.986448609278 474 0.11620934640164 127.67243282417 10003.310917609 401870.22641789
13	282043 21354 0 99901 0 9994.398231895596 501 0.045710775265521 119.80975247525 10004.965731328 392096.41808498
14	303397 22161 0 99865 0 9991.81533241574 520 0.046123408011139 124.0672332975 10003.259574735 383505.45385924
15	325558 22055 0 99765 0 9983.023330027052 518 0.054828368158694 103.73537837627 10012.71475796 367521.44168441
16	347613 21943 0 99885 0 9993.062954547904 515 0.0079108492367303 124.11314944507 10011.458726669 385992.8695706
17	369556 20243 0 99797 0 9985.382123356739 476 0.1027697477237 166.22247997431 10013.114132932 446286.25248338
18	389799 20707 0 99497 0 9956.669194622444 487 0.023148281850809 116.89816264797 10001.183698541 391517.43045509
19	410506 22421 0 99513 0 9957.872701764933 526 0.00340333292487 140.69827984347 10010.671912921 367919.31457347
20	432927 19912 0 99939 0 9998.530972670138 468 0.0084339027593333 140.86468137091 10025.910625716 437533.41851586
21	452839 21440 0 99937 0 9998.518633700562 503 0.071436328498829 119.67005059116 10002.491818753 390359.54713039
22	474279 22064 0 99751 0 9982.190186299508 518 0.036874728249892 174.14948118317 10007.054447551 412556.9044022
23	496343 22048 0 99829 0 9988.203080173327 517 0.03202188360964 137.75161133363 10010.198730123 390711.70999163
24	518391 22661 0 99705 0 9978.693861603118 532 0.0012539440833576 165.55292645892 10006.616031581 385179.21577212
25	541052 20814 0 99801 0 9985.74194701836 489 0.10359056904613 114.48913051299 10045.878008041 398187.78317834
26	561866 20052 0 99285 0 9938.107291767561 471 0.056525667606476 152.28911998209 10001.698572914 423515.91287248
27	581918 21586 0 99825 0 9987.847413494712 507 0.021574599850278 123.11030721213 10008.167690824 391231.05801567
28	603504 22399 0 99853 0 9990.868617356544 526 0.025393876907691 128.10422122619 10011.870275542 366412.28089726
29	625903 21277 0 99933 0 9998.337224885025 500 0.0015927693787653 139.30162197618 10018.148963691 412802.67511949
30	647180 22458 0 99659 0 9972.3131129696 527 0.082211788960819 149.90156177853 10008.331940248 390443.9107502
31	669638 22187 0 99813 0 9987.562962895333 521 0.037447913047065 111.13413998377 10016.203754822 377964.84482301
32	691825 21054 0 99949 0 9999.309208337551 495 0.0051995978451505 124.34164981153 10026.72197998 402500.00077032
33	712879 20373 0 99743 0 9981.895403971032 479 0.058167932903804 147.72997462308 10120.132911575 429277.62277889
34	733252 21266 0 99917 0 9996.19836025113 500 0.12711280641614 146.38021377935 10023.396230826 413218.54896372
35	754518 21713 0 99837 0 9989.306559820826 510 0.0067739716008636 112.09228510812 10037.393404709 369243.41359375
36	776231 21247 0 99725 0 9980.987295307764 500 0.058872824308969 108.41332700917 10014.642420455 377802.90488222
37	797478 20318 0 99701 0 9978.056701674447 477 0.056226943217795 123.55126937643 10057.093011877 424561.0880328
38	817796 20776 0 99847 0 9989.735408276872 488 0.013223488671316 142.43677202105 10014.020280594 433140.5111068
39	838572 20407 0 99671 0 9972.442097119032 480 0.016701133296684 176.41508272807 10007.921369154 437098.51157627
40	858979 20481 0 99307 0 9939.246448423195 481 0.023872989768715 138.54582606471 10000.788663739 451073.58621549
41	879460 21436 0 99919 0 9996.201016671951 504 0.009578603778767 118.41540359098 10007.813362492 384836.13278014
42	900896 20610 0 99861 0 9991.200229497653 484 0.035114208175165 127.94583310069 10017.814730615 417873.15604109
43	921506 21668 0 99831 0 9988.287016457089 509 0.016473301243118 127.78509307249 10002.51570361 414550.73971497
44	943174 21347 0 99529 0 9960.694564498425 502 0.049434798978046 110.92803873653 10000.548713544 396395.52554015
45	964521 22481 0 99877 0 9992.607966157548 528 0.00093096239929842 142.02293578707 10014.657501122 387829.9241607
46	987002 21858 0 99597 0 9967.999516682089 514 0.050019981858296 131.9623142691 10000.908386649 374703.39386375
47	1008860 21288 0 99645 0 9972.084790309158 500 0.040594498554692 158.83540858549 10013.118626118 401722.4843895
48	1030148 21709 0 99953 0 9999.672982182854 510 0.016136078588728 167.5859426027 10000.251123839 433313.91294854
49	1051857 20622 0 99389 0 9944.552352569464 485 0.020363980921825 190.59601362892 10033.332377682 448035.17410565
50	1072479 10387 1 99173 0.378519642865 9928.15334238658 363 1 1 363 363
51	1082866 22592 4 99176 0.478519642865 9928.25334238658 513 0.099999999998545 0.19636712730789 51.630722728001 5.2177945566767
52	1105458 9711 5 99949 0.485482608732 9999.309208337551 339 1 1 339 339
53	1115169 21732 8 99952 0.585482608732 9999.409208337551 494 0.099999999998545 0.19370136839098 49.807993093626 5.0509623878938
54	1136901 3833 9 98965 0.606631994795 9911.483324645244 134 1 1 134 134
55	1140734 20549 12 99944 0.706631994795 9998.630972670138 467 0.099999999998545 0.19136697386602 47.047434234691 4.7651925486565
56	1161283 4854 13 99901 0.829584574702 9994.398231895596 169 1 1 169 169
57	1166137 22020 16 99904 0.929584574702 9994.498231895596 500 0.099999999998545 0.19351952350098 50.488856297395 5.1348457536996
58	1188157 10176 17 99885 1.05677835357 9993.062954547904 355 1 1 355 355
59	1198333 22614 20 99890 1.15677835357 9993.162954547904 514 0.099999999998545 0.19463334382101 51.709715040183 5.2197527192553
60	1220947 10699 21 99651 1.467008759288 9972.227242901826 373 1 1 373 373
61	1231646 23434 24 99662 1.567008759288 9972.327242901826 532 0.099999999998545 0.144483419224 53.244483419209 5.3308754584276
62	1255080 9621 25 99797 1.964421148736 9985.382123356739 336 1 1 336 336
63	1264701 20904 28 99800 2.064421148736 9985.482123356739 475 0.099999999998545 0.1783899916536 47.708846956482 4.8047785921219
64	1285605 9623 33 99357 2.586885229816 9941.854728914283 336 1 1 336 336
65	1295228 9691 35 99893 2.684010980209 9993.986448609278 338 1 1 338 338
66	1304919 21296 38 99362 2.686885229816 9941.954728914283 485 0.099999999998545 0.18010518378287 48.895885706203 4.953589801655
67	1326215 20866 40 99896 2.784010980209 9994.086448609278 473 0.099999999998545 0.17695897086742 47.433454690675 4.7642134206732
68	1347081 10365 41 99873 3.141736494925 9992.096255843581 361 1 1 361 361
69	1357446 22162 44 99942 3.241736494925 9998.618633700562 502 0.099999999998545 0.18172490740699 50.506008420123 5.09865153028
70	1379608 10178 45 99597 3.412628840718 9967.999516682089 355 1 1 355 355
71	1389786 22592 48 99604 3.512628840718 9968.099516682089 513 0.099999999998545 0.16641430205436 51.432394067186 5.1628646326521
72	1412378 9542 49 99939 3.686383546934 9998.530972670138 333 1 1 333 333
73	1421920 10090 53 99865 4.644767649377 9991.81533241574 352 1 1 352 352
74	1432010 22869 56 99868 4.744767649377 9991.91533241574 519 0.099999999998545 0.19343230889035 52.20309792662 5.2733985861239
75	1454879 9796 57 99801 4.856137582298 9985.74194701836 342 1 1 342 342
76	1464675 21491 60 99804 4.956137582298 9985.84194701836 488 0.099999999998545 0.18002307109305 48.985310947508 4.9284597588715
77	1486166 4442 61 98441 5.697408622634 9867.88728535599 155 1 1 155 155
78	1490608 22794 64 99768 5.797408622634 9983.123330027052 517 0.099999999998545 0.18705567968004 52.080943222817 5.275483737339
79	1513402 10069 65 99725 6.001907866846 9980.987295307764 352 1 1 352 352
80	1523471 21934 68 99728 6.101907866846 9981.087295307764 499 0.099999999998545 0.17848491185305 50.040841955413 5.026989647705
81	1545405 10234 71 99877 6.429468674703 9992.607966157548 357 1 1 357 357
82	1555639 9287 75 98641 6.528105529747 9884.975543486326 324 1 1 324 324
83	1564926 23211 78 99882 6.529468674703 9992.707966157548 527 0.099999999998545 0.19906903760057 53.076197553566 5.3728494813077
84	1588137 20678 80 99290 6.628105529747 9938.207291767561 470 0.099999999998545 0.18705265890594 47.43260270761 4.8133466008034
85	1608815 9441 81 99307 6.668240890524 9939.246448423195 329 1 1 329 329
86	1618256 21135 84 99314 6.768240890524 9939.346448423195 480 0.099999999998545 0.19844417530203 48.485822343124 4.9306271232824
87	1639391 4127 85 99077 6.875308165935 9921.684441035035 144 1 1 144 144
88	1643518 21320 88 99536 6.975308165935 9961.44352252844 484 0.099999999998545 0.19967384048869 48.818574605879 4.9530634148203
89	1664838 9136 89 99897 7.316061781284 9994.193639987323 319 1 1 319 319
90	1673974 22120 92 99924 7.416061781284 9996.301016671951 503 0.099999999998545 0.19139322980391 50.490856955357 5.0847819061398
91	1696094 4291 93 99825 8.736176800439 9987.847413494712 150 1 1 150 150
92	1700385 22308 96 99828 8.836176800439 9987.947413494712 506 0.099999999998545 0.19481776275825 50.830560889625 5.1245872039704
93	1722693 9041 97 99701 10.295355755508 9978.056701674447 315 1 1 315 315
94	1731734 20951 100 99704 10.395355755508 9978.156701674447 476 0.099999999998545 0.18896156094252 47.712226702514 4.7908587876464
95	1752685 9789 101 99847 10.726328631756 9989.735408276872 342 1 1 342 342
96	1762474 21402 104 99852 10.826328631756 9989.835408276872 487 0.099999999998545 0.17704850990776 49.024255020318 4.952356063592
97	1783876 10485 105 99405 11.491713496228 9945.882164527505 365 1 1 365 365
98	1794361 21945 108 99528 11.591713496228 9960.65149879044 497 0.099999999998545 0.19257078348528 50.142117866296 5.0918009389747
99	1816306 10092 109 99529 11.612580851988 9960.694564498425 353 1 1 353 353
100	1826398 9771 111 99379 11.625313641091 9944.371610252121 330 1 1 330 330
101	1836169 22544 114 99532 11.712580851988 9960.794564498425 501 0.099999999998545 0.14957795006376 50.176871390087 5.028279044077
102	1858713 21871 116 99500 11.725313641091 9956.769194622444 486 0.099999999998545 0.16665355083614 48.666653550843 4.8777734060077
103	1880584 10762 117 99585 12.072430324157 9967.650450068464 362 1 1 362 362
104	1891346 4711 119 98845 12.114107022588 9902.598536353605 159 1 1 159 159
105	1896057 4625 121 99069 12.125000917022 9919.891847921676 156 1 1 156 156
106	1900682 23260 124 99834 12.172430324157 9988.303080173327 516 0.099999999998545 0.18635197028016 51.968867840832 5.2594147405401
107	1923942 4215 125 99707 12.206777311901 9978.748886362753 142 1 1 142 142
108	1928157 23308 130 99756 12.306777311901 9982.290186299508 517 0.099999999998545 0.19674072653197 51.967562290031 5.2468867232852
109	1951465 22510 132 99650 12.314107022588 9972.184790309158 499 0.099999999998545 0.189106105566 50.422227170521 5.1290160635539
110	1973975 4675 133 97969 12.784712320105 9819.614527536666 158 1 1 158 158
111	1978650 10079 141 99879 13.570528575678 9992.691890886679 340 1 1 340 340
112	1988729 22456 144 99936 13.670528575678 9998.437224885025 499 0.099999999998545 0.19620505192506 50.21862446428 5.0746105158814
113	2011185 10371 149 99929 14.300805947153 9998.099996706859 349 1 1 349 349
114	2021556 23036 152 99932 14.400805947153 9998.199996706859 511 0.099999999998545 0.17079966408892 51.272575056347 5.154098945551
115	2044592 4763 157 99575 14.933142838744 9965.437900263507 161 1 1 161 161
116	2049355 10735 161 99953 15.733735131438 9999.672982182854 362 1 1 362 362
117	2060090 22932 164 99956 15.833735131438 9999.772982182854 509 0.099999999998545 0.19971975715634 51.265507528054 5.1913536768358
118	2083022 5131 165 99761 16.005647817852 9982.900348044914 173 1 1 173 173
119	2088153 9876 167 99671 16.093732643296 9972.442097119032 333 1 1 333 333
120	2098029 23232 170 99822 16.105647817852 9987.702127316908 515 0.099999999998545 0.17996947536994 51.744867773653 5.2133724386402
121	2121261 21597 172 99676 16.193732643296 9972.542097119032 479 0.099999999998545 0.1665550447251 48.018642987537 4.8198423176267
122	2142858 10644 173 99789 16.367591712189 9984.527461425897 359 1 1 359 359
123	2153502 22482 176 99922 16.467591712189 9996.29836025113 499 0.099999999998545 0.18985906268244 50.228945453031 5.0765647226208
124	2175984 10137 181 99249 16.847395664611 9935.67943357009 342 1 1 342 342
125	2186121 21951 184 99872 16.947395664611 9992.018063346884 488 0.099999999998545 0.17848587988783 49.002893519334 4.9317136025295
126	2208072 10870 191 99831 17.66775889018 9988.287016457089 367 1 1 367 367
127	2218942 22917 196 99836 17.76775889018 9988.387016457089 508 0.099999999998545 0.19138510174503 51.135253131086 5.1690348626881
128	2241859 10734 197 99659 17.874095078863 9972.3131129696 361 1 1 361 361
129	2252593 23738 200 99670 17.974095078863 9972.4131129696 526 0.099999999998545 0.1933890832388 52.961589607688 5.360562097414
130	2276331 4127 201 99485 18.978123097032 9955.440243609813 139 1 1 139 139
131	2280458 10751 217 99765 20.214726343078 9983.023330027052 362 1 1 362 362
132	2291209 4302 229 99705 20.947590863274 9978.693861603118 145 1 1 145 145
133	2295511 4890 231 98665 21.03798383054 9887.970631553751 165 1 1 165 165
134	2300401 23946 234 99710 21.047590863274 9978.793861603118 531 0.099999999998545 0.15334732188876 53.153347321883 5.3235154011293
135	2324347 4416 243 99349 21.399766053515 9941.312320315941 149 1 1 149 149
136	2328763 4579 253 99689 22.555976236379 9975.785459974153 154 1 1 154 154
137	2333342 23657 256 99858 22.655976236379 9990.968617356544 525 0.099999999998545 0.16152930931912 52.79011825821 5.3195325374411
138	2356999 4006 269 99277 23.627137632438 9937.050406667541 135 1 1 135 135
139	2361005 21794 272 99864 23.727137632438 9991.300229497653 483 0.099999999998545 0.1830992661894 48.64212558376 4.9183434004683
140	2382799 10448 273 99513 23.737309924295 9957.872701764933 352 1 1 352 352
141	2393247 23700 276 99516 23.837309924295 9957.972701764933 525 0.099999999998545 0.19622675877417 53.018123533762 5.3976703082196
142	2416947 4317 281 99869 24.11831649029 9991.918063346884 146 1 1 146 146
143	2421264 9599 285 99945 24.630156904837 9998.728044113561 324 1 1 324 324
144	2430863 21438 290 99948 24.730156904837 9998.828044113561 476 0.099999999998545 0.17490158910368 47.728776626756 4.7942680930845
145	2452301 4348 309 99389 28.348704517473 9944.552352569464 147 1 1 147 147
146	2456649 21828 312 99392 28.448704517473 9944.652352569464 484 0.099999999998545 0.1655061288111 48.591822874016 4.8889043774103
147	2478477 5449 317 99919 28.799370810252 9996.201016671951 184 1 1 184 184
148	2483926 10318 321 99743 29.033848991076 9981.895403971032 348 1 1 348 348
149	2494244 21518 324 99748 29.133848991076 9981.995403971032 478 0.099999999998545 0.19881681808965 48.050850390927 4.8477031885613
150	2515762 4004 325 99777 29.336643555588 9983.64115021959 135 1 1 135 135
151	2519766 4462 333 97053 29.632501835933 9719.956320296788 151 1 1 151 151
152	2524228 4354 335 99913 29.69814433919 9995.546535264133 147 1 1 147 147
153	2528582 9837 381 99625 33.931809311181 9970.341631869743 331 1 1 331 331
154	2538419 10829 397 99925 36.645260577018 9997.850736889837 365 1 1 365 365
155	2549248 22845 400 99928 36.745260577018 9997.950736889837 507 0.099999999998545 0.18966396026462 50.914026522941 5.1284299917822
156	2572093 9997 437 99293 39.909488265527 9938.642225595624 337 1 1 337 337
157	2582090 4388 441 99319 40.017282224423 9939.656851482124 148 1 1 148 148
158	2586478 4975 447 99337 41.426967190208 9940.68213190474 167 1 1 167 167
159	2591453 4342 453 98531 41.900040263182 9875.593050820926 146 1 1 146 146
160	2595795 10166 465 99815 42.625305121081 9987.602127316908 342 1 1 342 342
161	2605961 5046 477 99819 42.937317322725 9987.701385455549 170 1 1 170 170
162	2611007 4199 495 99937 44.111767751438 9998.518633700562 141 1 1 141 141
163	2615206 10287 509 99601 44.688616925188 9968.098654266964 347 1 1 347 347
164	2625493 22492 512 99610 44.788616925188 9968.198654266964 499 0.099999999998545 0.2333392125729 50.422712846509 5.1359495235791
165	2647985 4326 517 99201 45.32373084527 9930.940855283846 146 1 1 146 146
166	2652311 21555 520 99588 45.42373084527 9967.663664546412 478 0.099999999998545 0.1967987931539 47.943958086941 4.8201605449886
167	2673866 10572 525 99359 47.153671236976 9941.901332260415 356 1 1 356 356
168	2684438 10735 553 99813 48.906363030484 9987.562962895333 362 1 1 362 362
169	2695173 23460 556 99818 49.006363030484 9987.662962895333 520 0.099999999998545 0.19219015198723 52.281972579951 5.2777608679526
170	2718633 11135 581 99751 54.798033480711 9982.190186299508 375 1 1 375 375
171	2729768 4589 597 99757 56.870592961744 9982.653025767552 155 1 1 155 155
172	2734357 4797 613 99909 58.954124358242 9995.33323972673 162 1 1 162 162
173	2739154 10998 625 99853 59.377546940754 9990.868617356544 371 1 1 371 371
174	2750152 4189 669 99557 65.075737326158 9963.889896308186 141 1 1 141 141
175	2754341 11462 681 99501 66.718140613365 9957.172700911872 386 1 1 386 386
176	2765803 4722 703 99933 70.362697603407 9998.337224885025 159 1 1 159 159
177	2770525 4509 729 99479 72.724427832817 9954.779276608149 152 1 1 152 152
178	2775034 22970 732 99840 72.824427832817 9989.406559820826 509 0.099999999998545 0.19040525778655 51.279667216961 5.1912511729259
179	2798004 10334 743 99861 73.926598566139 9991.200229497653 348 1 1 348 348