file 2922361 1767629712                                         
version 3
run Lognormal-12-20260105-17:15:12-28123
attr configname Lognormal
attr datetime 20260105-17:15:12
attr datetimef 20260105-171512
attr experiment Lognormal
attr inifile omnetpp.ini
attr iterationvars "$N=50, $p=0.7"
attr iterationvarsd N=50/p=0.7
attr iterationvarsf N=50,p=0.7-
attr measurement "$N=50, $p=0.7"
attr network progetto.DatabaseNetwork
attr processid 28123
attr repetition 2
attr replication #2
attr resultdir results
attr runnumber 12
attr seedset 2
itervar N 50
itervar p 0.7
config description "Lognormal distribution (hotspots) - varia N e p"
config *.user[*].tableDistribution "\"lognormal\""
config *.user[*].lognormalM 1.5
config *.user[*].lognormalS 1.0
config *.numUsers 50
config *.user[*].readProbability 0.7
config network progetto.DatabaseNetwork
config sim-time-limit 10000s
config cpu-time-limit 3600s
config repeat 5
config seed-set 2
config output-vector-file "results/Lognormal-$N=50, $p=0.7-2.vec"
config output-scalar-file "results/Lognormal-$N=50, $p=0.7-2.sca"
config result-dir results
config **.vector-recording true
config **.scalar-recording true
config *.numTables 20
config *.user[*].lambda 0.05
config *.user[*].serviceTime 0.1s

vector 0 DatabaseNetwork.user[0] AccessInterval ETV
vector 1 DatabaseNetwork.user[1] AccessInterval ETV
vector 2 DatabaseNetwork.user[2] AccessInterval ETV
vector 3 DatabaseNetwork.user[3] AccessInterval ETV
vector 4 DatabaseNetwork.user[4] AccessInterval ETV
vector 5 DatabaseNetwork.user[5] AccessInterval ETV
vector 6 DatabaseNetwork.user[6] AccessInterval ETV
vector 7 DatabaseNetwork.user[7] AccessInterval ETV
vector 8 DatabaseNetwork.user[8] AccessInterval ETV
vector 9 DatabaseNetwork.user[9] AccessInterval ETV
vector 10 DatabaseNetwork.user[10] AccessInterval ETV
vector 11 DatabaseNetwork.user[11] AccessInterval ETV
vector 12 DatabaseNetwork.user[12] AccessInterval ETV
vector 13 DatabaseNetwork.user[13] AccessInterval ETV
vector 14 DatabaseNetwork.user[14] AccessInterval ETV
vector 15 DatabaseNetwork.user[15] AccessInterval ETV
vector 16 DatabaseNetwork.user[16] AccessInterval ETV
vector 17 DatabaseNetwork.user[17] AccessInterval ETV
vector 18 DatabaseNetwork.user[18] AccessInterval ETV
vector 19 DatabaseNetwork.user[19] AccessInterval ETV
vector 20 DatabaseNetwork.user[20] AccessInterval ETV
vector 21 DatabaseNetwork.user[21] AccessInterval ETV
vector 22 DatabaseNetwork.user[22] AccessInterval ETV
vector 23 DatabaseNetwork.user[23] AccessInterval ETV
vector 24 DatabaseNetwork.user[24] AccessInterval ETV
vector 25 DatabaseNetwork.user[25] AccessInterval ETV
vector 26 DatabaseNetwork.user[26] AccessInterval ETV
vector 27 DatabaseNetwork.user[27] AccessInterval ETV
vector 28 DatabaseNetwork.user[28] AccessInterval ETV
vector 29 DatabaseNetwork.user[29] AccessInterval ETV
vector 30 DatabaseNetwork.user[30] AccessInterval ETV
vector 31 DatabaseNetwork.user[31] AccessInterval ETV
vector 32 DatabaseNetwork.user[32] AccessInterval ETV
vector 33 DatabaseNetwork.user[33] AccessInterval ETV
vector 34 DatabaseNetwork.user[34] AccessInterval ETV
vector 35 DatabaseNetwork.user[35] AccessInterval ETV
vector 36 DatabaseNetwork.user[36] AccessInterval ETV
vector 37 DatabaseNetwork.user[37] AccessInterval ETV
vector 38 DatabaseNetwork.user[38] AccessInterval ETV
vector 39 DatabaseNetwork.user[39] AccessInterval ETV
vector 40 DatabaseNetwork.user[40] AccessInterval ETV
vector 41 DatabaseNetwork.user[41] AccessInterval ETV
vector 42 DatabaseNetwork.user[42] AccessInterval ETV
vector 43 DatabaseNetwork.user[43] AccessInterval ETV
vector 44 DatabaseNetwork.user[44] AccessInterval ETV
vector 45 DatabaseNetwork.user[45] AccessInterval ETV
vector 46 DatabaseNetwork.user[46] AccessInterval ETV
vector 47 DatabaseNetwork.user[47] AccessInterval ETV
vector 48 DatabaseNetwork.user[48] AccessInterval ETV
vector 49 DatabaseNetwork.user[49] AccessInterval ETV
vector 50 DatabaseNetwork.user[2] ReadAccesses ETV
vector 51 DatabaseNetwork.user[2] WaitTime ETV
vector 52 DatabaseNetwork.user[42] ReadAccesses ETV
vector 53 DatabaseNetwork.user[42] WaitTime ETV
vector 54 DatabaseNetwork.user[38] ReadAccesses ETV
vector 55 DatabaseNetwork.user[38] WaitTime ETV
vector 56 DatabaseNetwork.user[46] ReadAccesses ETV
vector 57 DatabaseNetwork.user[46] WaitTime ETV
vector 58 DatabaseNetwork.user[45] ReadAccesses ETV
vector 59 DatabaseNetwork.user[15] WriteAccesses ETV
vector 60 DatabaseNetwork.user[45] WaitTime ETV
vector 61 DatabaseNetwork.user[15] WaitTime ETV
vector 62 DatabaseNetwork.user[48] ReadAccesses ETV
vector 63 DatabaseNetwork.user[48] WaitTime ETV
vector 64 DatabaseNetwork.user[24] WriteAccesses ETV
vector 65 DatabaseNetwork.user[24] WaitTime ETV
vector 66 DatabaseNetwork.user[11] WriteAccesses ETV
vector 67 DatabaseNetwork.user[11] WaitTime ETV
vector 68 DatabaseNetwork.user[37] ReadAccesses ETV
vector 69 DatabaseNetwork.user[37] WaitTime ETV
vector 70 DatabaseNetwork.user[47] ReadAccesses ETV
vector 71 DatabaseNetwork.user[28] ReadAccesses ETV
vector 72 DatabaseNetwork.user[1] ReadAccesses ETV
vector 73 DatabaseNetwork.user[47] WaitTime ETV
vector 74 DatabaseNetwork.user[28] WaitTime ETV
vector 75 DatabaseNetwork.user[1] WaitTime ETV
vector 76 DatabaseNetwork.user[12] ReadAccesses ETV
vector 77 DatabaseNetwork.user[12] WaitTime ETV
vector 78 DatabaseNetwork.user[31] WriteAccesses ETV
vector 79 DatabaseNetwork.user[31] WaitTime ETV
vector 80 DatabaseNetwork.user[18] WriteAccesses ETV
vector 81 DatabaseNetwork.user[18] WaitTime ETV
vector 82 DatabaseNetwork.user[43] WriteAccesses ETV
vector 83 DatabaseNetwork.user[43] WaitTime ETV
vector 84 DatabaseNetwork.user[41] ReadAccesses ETV
vector 85 DatabaseNetwork.user[16] ReadAccesses ETV
vector 86 DatabaseNetwork.user[41] WaitTime ETV
vector 87 DatabaseNetwork.user[16] WaitTime ETV
vector 88 DatabaseNetwork.user[9] WriteAccesses ETV
vector 89 DatabaseNetwork.user[9] WaitTime ETV
vector 90 DatabaseNetwork.user[10] ReadAccesses ETV
vector 91 DatabaseNetwork.user[10] WaitTime ETV
vector 92 DatabaseNetwork.user[35] WriteAccesses ETV
vector 93 DatabaseNetwork.user[2] WriteAccesses ETV
vector 94 DatabaseNetwork.user[35] WaitTime ETV
vector 95 DatabaseNetwork.user[8] ReadAccesses ETV
vector 96 DatabaseNetwork.user[8] WaitTime ETV
vector 97 DatabaseNetwork.user[44] ReadAccesses ETV
vector 98 DatabaseNetwork.user[44] WaitTime ETV
vector 99 DatabaseNetwork.user[6] ReadAccesses ETV
vector 100 DatabaseNetwork.user[0] WriteAccesses ETV
vector 101 DatabaseNetwork.user[6] WaitTime ETV
vector 102 DatabaseNetwork.user[0] WaitTime ETV
vector 103 DatabaseNetwork.user[7] WriteAccesses ETV
vector 104 DatabaseNetwork.user[17] ReadAccesses ETV
vector 105 DatabaseNetwork.user[7] WaitTime ETV
vector 106 DatabaseNetwork.user[17] WaitTime ETV
vector 107 DatabaseNetwork.user[34] ReadAccesses ETV
vector 108 DatabaseNetwork.user[49] ReadAccesses ETV
vector 109 DatabaseNetwork.user[34] WaitTime ETV
vector 110 DatabaseNetwork.user[49] WaitTime ETV
vector 111 DatabaseNetwork.user[25] WriteAccesses ETV
vector 112 DatabaseNetwork.user[25] WaitTime ETV
vector 113 DatabaseNetwork.user[40] WriteAccesses ETV
vector 114 DatabaseNetwork.user[40] WaitTime ETV
vector 115 DatabaseNetwork.user[26] WriteAccesses ETV
vector 116 DatabaseNetwork.user[26] WaitTime ETV
vector 117 DatabaseNetwork.user[22] ReadAccesses ETV
vector 118 DatabaseNetwork.user[22] WaitTime ETV
vector 119 DatabaseNetwork.user[33] ReadAccesses ETV
vector 120 DatabaseNetwork.user[33] WaitTime ETV
vector 121 DatabaseNetwork.user[4] ReadAccesses ETV
vector 122 DatabaseNetwork.user[4] WaitTime ETV
vector 123 DatabaseNetwork.user[26] ReadAccesses ETV
vector 124 DatabaseNetwork.user[24] ReadAccesses ETV
vector 125 DatabaseNetwork.user[27] ReadAccesses ETV
vector 126 DatabaseNetwork.user[27] WaitTime ETV
vector 127 DatabaseNetwork.user[14] ReadAccesses ETV
vector 128 DatabaseNetwork.user[20] ReadAccesses ETV
vector 129 DatabaseNetwork.user[14] WaitTime ETV
vector 130 DatabaseNetwork.user[20] WaitTime ETV
vector 131 DatabaseNetwork.user[43] ReadAccesses ETV
vector 132 DatabaseNetwork.user[20] WriteAccesses ETV
vector 133 DatabaseNetwork.user[19] WriteAccesses ETV
vector 134 DatabaseNetwork.user[19] WaitTime ETV
vector 135 DatabaseNetwork.user[23] ReadAccesses ETV
vector 136 DatabaseNetwork.user[23] WaitTime ETV
vector 137 DatabaseNetwork.user[13] WriteAccesses ETV
vector 138 DatabaseNetwork.user[13] WaitTime ETV
vector 139 DatabaseNetwork.user[40] ReadAccesses ETV
vector 140 DatabaseNetwork.user[29] ReadAccesses ETV
vector 141 DatabaseNetwork.user[29] WaitTime ETV
vector 142 DatabaseNetwork.user[0] ReadAccesses ETV
vector 143 DatabaseNetwork.user[13] ReadAccesses ETV
vector 144 DatabaseNetwork.user[30] ReadAccesses ETV
vector 145 DatabaseNetwork.user[30] WaitTime ETV
vector 146 DatabaseNetwork.user[25] ReadAccesses ETV
vector 147 DatabaseNetwork.user[34] WriteAccesses ETV
vector 148 DatabaseNetwork.user[9] ReadAccesses ETV
vector 149 DatabaseNetwork.user[17] WriteAccesses ETV
vector 150 DatabaseNetwork.user[48] WriteAccesses ETV
vector 151 DatabaseNetwork.user[21] WriteAccesses ETV
vector 152 DatabaseNetwork.user[21] WaitTime ETV
vector 153 DatabaseNetwork.user[14] WriteAccesses ETV
vector 154 DatabaseNetwork.user[16] WriteAccesses ETV
vector 155 DatabaseNetwork.user[36] WriteAccesses ETV
vector 156 DatabaseNetwork.user[36] WaitTime ETV
vector 157 DatabaseNetwork.user[6] WriteAccesses ETV
vector 158 DatabaseNetwork.user[32] WriteAccesses ETV
vector 159 DatabaseNetwork.user[32] WaitTime ETV
vector 160 DatabaseNetwork.user[28] WriteAccesses ETV
vector 161 DatabaseNetwork.user[19] ReadAccesses ETV
vector 162 DatabaseNetwork.user[21] ReadAccesses ETV
vector 163 DatabaseNetwork.user[45] WriteAccesses ETV
vector 164 DatabaseNetwork.user[36] ReadAccesses ETV
vector 165 DatabaseNetwork.user[10] WriteAccesses ETV
vector 166 DatabaseNetwork.user[37] WriteAccesses ETV
vector 167 DatabaseNetwork.user[3] ReadAccesses ETV
vector 168 DatabaseNetwork.user[3] WaitTime ETV
vector 169 DatabaseNetwork.user[41] WriteAccesses ETV
vector 170 DatabaseNetwork.user[30] WriteAccesses ETV
vector 171 DatabaseNetwork.user[5] ReadAccesses ETV
vector 172 DatabaseNetwork.user[5] WaitTime ETV
vector 173 DatabaseNetwork.user[35] ReadAccesses ETV
vector 174 DatabaseNetwork.user[31] ReadAccesses ETV
vector 175 DatabaseNetwork.user[5] WriteAccesses ETV
vector 176 DatabaseNetwork.user[33] WriteAccesses ETV
vector 177 DatabaseNetwork.user[23] WriteAccesses ETV
vector 178 DatabaseNetwork.user[39] ReadAccesses ETV
vector 179 DatabaseNetwork.user[39] WaitTime ETV
vector 180 DatabaseNetwork.user[49] WriteAccesses ETV
vector 181 DatabaseNetwork.user[18] ReadAccesses ETV
vector 182 DatabaseNetwork.user[7] ReadAccesses ETV
vector 183 DatabaseNetwork.user[3] WriteAccesses ETV
vector 184 DatabaseNetwork.user[42] WriteAccesses ETV
vector 185 DatabaseNetwork.user[39] WriteAccesses ETV
vector 186 DatabaseNetwork.user[22] WriteAccesses ETV
vector 187 DatabaseNetwork.user[44] WriteAccesses ETV
vector 188 DatabaseNetwork.user[38] WriteAccesses ETV
vector 189 DatabaseNetwork.user[1] WriteAccesses ETV
vector 190 DatabaseNetwork.user[11] ReadAccesses ETV
vector 191 DatabaseNetwork.user[15] ReadAccesses ETV
vector 192 DatabaseNetwork.user[8] WriteAccesses ETV
vector 193 DatabaseNetwork.user[32] ReadAccesses ETV
vector 194 DatabaseNetwork.user[47] WriteAccesses ETV
vector 195 DatabaseNetwork.user[27] WriteAccesses ETV
vector 196 DatabaseNetwork.user[46] WriteAccesses ETV
vector 197 DatabaseNetwork.user[4] WriteAccesses ETV
vector 198 DatabaseNetwork.user[29] WriteAccesses ETV
vector 199 DatabaseNetwork.user[12] WriteAccesses ETV
0	11583 20787 0 99917 0 9985.036654437139 501 0.055328732896875 131.35346484747 10000.037594165 416922.81646103
1	32370 21246 0 99973 0 9991.863566646104 510 0.0093349850130101 105.73792872625 10002.946031039 378541.88858546
2	53616 20814 0 99969 0 9990.822778174567 501 0.006671636079354 122.43301383314 10000.805167745 402105.36602482
3	74430 22506 0 99979 0 9992.527773103554 541 0.024076723172288 95.789422137469 10029.520994442 356208.7264057
4	96936 20841 0 99851 0 9978.655653803697 501 0.0081008638654811 124.05084326256 10090.195201732 384808.9816491
5	117777 18453 0 99647 0 9958.019060753534 444 0.12104254734967 184.64871073723 10002.475158573 467696.18023661
6	136230 22118 0 99541 0 9946.646254905848 532 0.052575016523552 148.48838426469 10026.20537745 362276.40606197
7	158348 21098 0 99817 0 9976.335272497677 508 0.017334165460247 125.11895387978 10015.381643687 377268.41509959
8	179446 21044 0 99953 0 9988.400311217515 506 0.028776105048933 146.82334337571 10003.399905324 384248.87083549
9	200490 20832 0 99845 0 9978.502135748632 501 0.070646214778403 131.82110323449 10033.888456107 394231.57386405
10	221322 20651 0 100021 0 9998.700818027411 485 0.0011807376732707 143.2684264535 10000.180201406 400283.0250502
11	241973 22416 0 100011 0 9996.248359614293 527 0.039588033028555 103.41705510005 10005.92419518 378940.5194946
12	264389 20592 0 99761 0 9971.165101055764 484 0.03159204245686 180.6853722207 10049.594896703 451635.33558989
13	284981 19484 0 100033 0 9999.859666740273 458 0.018003129142311 121.32245550146 10030.218927294 441841.68809235
14	304465 22946 0 99733 0 9968.204102723239 539 0.090056077923265 111.36785385898 10020.01141949 369495.58976677
15	327411 22422 0 99509 0 9942.951016555797 526 0.0024053410641415 118.39318054545 10004.075669714 355711.67485233
16	349833 22133 0 99905 0 9984.303542605999 519 0.024808010732053 136.10814655659 10017.883725901 382139.9664173
17	371966 22561 0 99925 0 9985.706073942231 531 0.0024718362899742 100.60732406091 10031.218624198 347044.68343013
18	394527 20138 0 99877 0 9981.332755184212 474 0.014479967685213 123.23258523283 10014.32167308 389997.24882745
19	414665 19804 0 99909 0 9984.479993601085 466 0.019720863885406 135.87269473336 10007.248997399 429205.84874149
20	434469 20609 0 99861 0 9979.308258007333 484 0.084756971381987 124.13377350533 10006.551155196 403341.79481949
21	455078 22385 0 100003 0 9995.529940185233 526 0.013210087399531 120.8070043476 10021.786356884 367643.61354534
22	477463 21895 0 99835 0 9977.011483812763 515 0.016065870217381 99.921665086328 10011.093563285 355461.66273291
23	499358 21325 0 99949 0 9987.592366997662 501 0.010646453215402 150.69032973259 10001.774092081 394678.45457317
24	520683 21334 0 99425 0 9931.93430331136 500 0.062957440108611 111.5976432057 10029.01011942 393303.45348033
25	542017 20767 0 99749 0 9969.338155529664 488 0.014248968879297 134.84428963037 10008.010360855 418640.33743576
26	562784 21838 0 99721 0 9964.54080303598 514 0.075433364218743 141.98353102258 10048.110152496 402392.41434784
27	584622 19000 0 100029 0 9999.47196144913 447 0.0094158989867141 114.16182013067 10008.847094362 416797.16864162
28	603622 22082 0 100009 0 9996.218954580985 519 0.025454928156919 147.92555417049 10009.037641334 400105.4764243
29	625704 19520 0 100017 0 9997.50851387198 459 0.0083763041967624 162.50255515238 10018.237233904 450597.73038747
30	645224 21359 0 99985 0 9993.677473794844 502 0.049590159850486 145.77784375094 10023.912639235 402675.50081611
31	666583 19516 0 100025 0 9999.188190008633 458 0.086364465121311 155.02686225897 10001.856939014 455519.84516499
32	686099 21511 0 99801 0 9975.497082504346 505 0.0061519964086966 126.39687114564 10004.794336606 423557.35617291
33	707610 23163 0 99621 0 9954.389128543133 544 0.003792067039462 103.00804123098 10003.818789566 360469.44575044
34	730773 21665 0 99945 0 9986.860040498606 509 0.0096091145687741 117.14607531913 10007.403124155 374907.18788134
35	752438 21596 0 99977 0 9992.485521528041 507 0.10003682773786 136.91679712405 10011.171864499 410433.46640901
36	774034 20476 0 99697 0 9962.292076961249 481 0.019523854290852 123.03327887587 10075.882761805 413875.58331683
37	794510 22490 0 99935 0 9986.209857312786 529 0.063184527032 101.4057904876 10051.680401222 386713.62558751
38	817000 22435 0 99997 0 9995.38919539722 526 0.024594558216665 109.47376666667 10002.773926619 380340.57775517
39	839435 21486 0 99957 0 9989.270747438049 504 0.031937249492462 131.04437044554 10004.869501746 391092.98852232
40	860921 20456 0 99899 0 9984.141077251133 480 0.042171815120014 150.99100752428 10040.192416105 408295.37602832
41	881377 20088 0 99873 0 9981.051361264629 472 0.0077673227493106 126.06590635187 10007.052720562 396332.19438937
42	901465 21872 0 99813 0 9975.881412917333 514 0.052546083556771 145.31976887497 10085.620653138 418602.54463308
43	923337 20954 0 99803 0 9975.583742491894 492 0.056691179743236 124.0443687352 10038.108341455 401012.5685678
44	944291 19714 0 99569 0 9950.138591513122 463 0.0097342423724849 133.99978953529 10023.181868765 428201.91295236
45	964005 22726 0 99921 0 9985.428884117157 534 0.0010222690663683 174.45314655256 10030.080508533 407104.28490193
46	986731 21257 0 99889 0 9983.155814498831 499 0.02086641155883 208.1880980109 10027.023587405 435108.12572167
47	1007988 23175 0 99989 0 9993.883082383209 544 0.030346086546681 84.403177319603 10012.146037203 342431.41582316
48	1031163 20920 0 99885 0 9981.994017286144 491 0.071105986751129 110.25698313087 10051.536610444 393964.30220401
49	1052083 21215 0 100001 0 9995.509866510202 498 0.0058600508818419 131.41728473755 10042.038378848 371421.07521104
50	1073298 10207 1 99969 0.525364736932 9990.822778174567 356 1 1 356 356
51	1083505 21973 4 99972 0.625364736932 9990.922778174567 500 0.099999999998545 0.2281811769758 50.251110570154 5.074433425201
52	1105478 10330 5 99813 1.350304353086 9975.881412917333 361 1 1 361 361
53	1115808 22567 8 99816 1.450304353086 9975.981412917333 513 0.099999999998545 0.15793088837836 51.473494194242 5.1728073185827
54	1138375 10125 9 99777 1.65992651012 9972.78480822044 353 1 1 353 353
55	1148500 23141 12 100000 1.75992651012 9995.48919539722 525 0.099999999998545 0.2124149707106 52.794057560119 5.3333682960334
56	1171641 9748 13 99627 2.030267873818 9954.743216279198 340 1 1 340 340
57	1181389 21988 16 99892 2.130267873818 9983.255814498831 498 0.099999999998545 0.18701772791246 50.029517369406 5.0405842104862
58	1203377 10727 17 99921 2.470338621905 9985.428884117157 375 1 1 375 375
59	1214104 4815 19 99477 2.555543458514 9937.619566561221 168 1 1 168 168
60	1218919 23398 22 99924 2.570338621905 9985.528884117157 533 0.099999999998545 0.1999319436527 53.614577484957 5.4186953272067
61	1242317 23162 24 99512 2.655543458514 9943.051016555797 525 0.099999999998545 0.18502095043732 52.862578104877 5.348056372183
62	1265479 10039 25 99465 2.72005967253 9935.751441250895 350 1 1 350 350
63	1275518 21578 28 99888 2.82005967253 9982.094017286144 490 0.099999999998545 0.1892036905283 49.256284868497 4.9701808703686
64	1297096 4309 29 99425 2.890805482373 9931.93430331136 150 1 1 150 150
65	1301405 22029 32 99428 2.990805482373 9932.03430331136 499 0.099999999998545 0.19483400490026 50.195278795766 5.0697937565965
66	1323434 4006 33 99341 3.354807823798 9924.270403821109 140 1 1 140 140
67	1327440 23191 36 100016 3.454807823798 9996.348359614293 526 0.099999999998545 0.19434540529619 53.099018464033 5.394248469334
68	1350631 10223 37 99935 3.895607906725 9986.209857312786 358 1 1 358 358
69	1360854 23198 40 99942 3.995607906725 9986.309857312786 528 0.099999999998545 0.15117453737366 52.906408452476 5.305595141831
70	1384052 10875 41 99989 4.011186056206 9993.883082383209 380 1 1 380 380
71	1394927 10334 43 100009 4.077602339223 9996.218954580985 361 1 1 361 361
72	1405261 10200 45 99973 4.093357685528 9991.863566646104 355 1 1 355 355
73	1415461 23938 48 99992 4.111186056206 9993.983082383209 543 0.099999999998545 0.16597367035206 54.522076797638 5.485180427694
74	1439399 22782 50 100014 4.177602339223 9996.318954580985 518 0.099999999998545 0.19429890525203 52.406766119117 5.3410686581356
75	1462181 22474 52 99976 4.193357685528 9991.963566646104 509 0.099999999998545 0.17075056750309 51.130717199593 5.1473751466286
76	1484655 9975 53 99761 4.579425894643 9971.165101055764 349 1 1 349 349
77	1494630 21230 56 99764 4.679425894643 9971.265101055764 483 0.099999999998545 0.18945604124929 48.548337706252 4.8961282032588
78	1515860 3852 63 99183 5.981550600929 9906.245704442259 134 1 1 134 134
79	1519712 20172 68 100028 6.081550600929 9999.288190008633 457 0.099999999998545 0.16479988186893 45.87283612879 4.6130943400712
80	1539884 4124 69 99163 6.207479312421 9905.32231344504 144 1 1 144 144
81	1544008 20829 72 99880 6.307479312421 9981.432755184212 473 0.099999999998545 0.19683334857291 47.41399997892 4.7624713863775
82	1564837 4930 73 99409 6.789862856486 9930.45358696688 172 1 1 172 172
83	1569767 21639 76 99808 6.889862856486 9975.683742491894 491 0.099999999998545 0.16214728836712 49.192006643937 4.9331551953536
84	1591406 9599 77 99873 7.048490079721 9981.051361264629 335 1 1 335 335
85	1601005 10027 79 99745 7.123634948101 9969.243212488065 349 1 1 349 349
86	1611032 20760 82 99876 7.148490079721 9981.151361264629 471 0.099999999998545 0.18557550421701 47.333004727374 4.771637304571
87	1631792 22850 84 99908 7.223634948101 9984.403542605999 518 0.099999999998545 0.19730542535899 52.082368664038 5.2574619682252
88	1654642 4382 85 99845 7.729033380436 9978.502135748632 153 1 1 153 153
89	1659024 21986 88 99848 7.829033380436 9978.602135748632 500 0.099999999998545 0.19366955594523 50.359512506185 5.0978934096861
90	1681010 10075 89 100021 8.019548466481 9998.700818027411 352 1 1 352 352
91	1691085 21335 92 100024 8.119548466481 9998.800818027411 484 0.099999999998545 0.167441520181 48.582762620414 4.8859968890149
92	1712420 4071 97 99897 10.461602504546 9984.041612172698 142 1 1 142 142
93	1716491 4128 101 98101 10.536540214125 9804.58958946429 144 1 1 144 144
94	1720619 22292 104 99982 10.561602504546 9992.585521528041 506 0.099999999998545 0.18563406716794 50.824851019644 5.1189976031473
95	1742911 9900 111 99929 10.907230344359 9986.064283558618 345 1 1 345 345
96	1752811 22260 116 99956 11.007230344359 9988.500311217515 505 0.099999999998545 0.13659431033011 50.536594310339 5.0586580056163
97	1775071 9377 117 99569 11.176603522625 9950.138591513122 327 1 1 327 327
98	1784448 20330 120 99572 11.276603522625 9950.238591513122 462 0.099999999998545 0.16562096302187 46.506049754229 4.6972291256748
99	1804778 10670 121 99541 11.430006362468 9946.646254905848 372 1 1 372 372
100	1815448 4497 123 99209 11.453839792544 9910.323207610901 152 1 1 152 152
101	1819945 23936 126 99544 11.530006362468 9946.746254905848 531 0.099999999998545 0.1935876041789 53.388703883943 5.3888820744776
102	1843881 22495 128 99920 11.553839792544 9985.136654437139 500 0.099999999998545 0.19569973682701 50.283372347351 5.078271878201
103	1866376 4781 133 99373 13.262026102764 9927.164200815306 161 1 1 161 161
104	1871157 11325 135 99925 13.278600377286 9985.706073942231 383 1 1 383 383
105	1882482 22874 138 99820 13.362026102764 9976.435272497677 507 0.099999999998545 0.17140900448021 50.820666983158 5.1000898410095
106	1905356 23770 140 99928 13.378600377286 9985.806073942231 530 0.099999999998545 0.19027284829008 53.341921412843 5.3891311226865
107	1929126 11127 141 99469 13.633735666083 9936.377197535125 375 1 1 375 375
108	1940253 10351 143 100001 13.635828752389 9995.509866510202 349 1 1 349 349
109	1950604 22872 146 99948 13.733735666083 9986.960040498606 508 0.099999999998545 0.10530799448225 50.805307994486 5.0810897737026
110	1973476 22433 148 100006 13.735828752389 9995.609866510202 497 0.099999999998545 0.13707502780744 49.805355728786 4.9940680245202
111	1995909 4065 149 99141 13.805472967174 9904.099084511959 137 1 1 137 137
112	1999974 21918 152 99756 13.905472967174 9969.438155529664 487 0.099999999998545 0.17204125256467 48.793730021579 4.8944063490887
113	2021892 4036 153 99109 14.073895784098 9900.345055477239 136 1 1 136 136
114	2025928 21605 156 99904 14.173895784098 9984.241077251133 479 0.099999999998545 0.13559019199965 47.954246023261 4.8024639064595
115	2047533 4327 157 99677 14.413579226361 9960.481128991454 146 1 1 146 146
116	2051860 23051 160 99724 14.513579226361 9964.64080303598 513 0.099999999998545 0.18801272879318 51.62825878194 5.2175195662788
117	2074911 10706 161 99821 15.063978170199 9976.60843012854 362 1 1 362 362
118	2085617 23117 164 99840 15.163978170199 9977.111483812763 514 0.099999999998545 0.18528611978172 51.700387939826 5.2174615716082
119	2108734 11271 169 99621 15.802296588066 9954.389128543133 380 1 1 380 380
120	2120005 24482 172 99624 15.902296588066 9954.489128543133 543 0.099999999998545 0.17869175227401 54.407036180681 5.4581926683827
121	2144487 9686 173 99851 15.955158478006 9978.655653803697 326 1 1 326 326
122	2154173 22558 176 99856 16.055158478006 9978.755653803697 500 0.099999999998545 0.19963894027751 50.26889275441 5.0773126901588
123	2176731 10861 177 99721 16.667381766372 9964.54080303598 367 1 1 367 367
124	2187592 10384 181 99265 17.138460749375 9916.471317477409 349 1 1 349 349
125	2197976 8806 193 100029 17.676324608463 9999.47196144913 298 1 1 298 298
126	2206782 20081 196 100032 17.776324608463 9999.57196144913 446 0.099999999998545 0.16202017046362 44.721333857585 4.491631386541
127	2226863 11204 213 99733 19.313347302846 9968.204102723239 378 1 1 378 378
128	2238067 9742 215 99861 19.411445162826 9979.308258007333 328 1 1 328 328
129	2247809 24239 218 99736 19.413347302846 9968.304102723239 538 0.099999999998545 0.19255572358702 54.189149002154 5.4822610829149
130	2272048 21773 220 99864 19.511445162826 9979.408258007333 483 0.099999999998545 0.18766134358611 48.632453132736 4.9205526878102
131	2293821 9471 223 99803 19.907729138827 9975.583742491894 319 1 1 319 319
132	2303292 4593 229 99397 19.94621423757 9929.52804883816 155 1 1 155 155
133	2307885 4021 235 99597 20.033581114353 9952.213654728166 136 1 1 136 136
134	2311906 20887 240 99912 20.133581114353 9984.579993601085 465 0.099999999998545 0.19542866124095 46.892547309072 4.7558260260494
135	2332793 9878 257 99949 22.978710234746 9987.592366997662 333 1 1 333 333
136	2342671 22561 260 99952 23.078710234746 9987.692366997662 500 0.099999999998545 0.1949214096212 50.227895630858 5.0604159438024
137	2365232 3736 269 99673 24.003778731456 9960.132370917575 126 1 1 126 126
138	2368968 20563 272 100036 24.103778731456 9999.959666740273 457 0.099999999998545 0.19837985900813 46.041229676963 4.6636752166755
139	2389531 10196 281 99899 25.007731921145 9984.141077251133 343 1 1 343 343
140	2399727 9741 285 100017 25.44176628254 9997.50851387198 329 1 1 329 329
141	2409468 20593 288 100020 25.54176628254 9997.60851387198 458 0.099999999998545 0.19871659147975 46.151712512205 4.6797935788908
142	2430061 10302 289 99917 26.265915309525 9985.036654437139 348 1 1 348 348
143	2440363 9817 309 100033 30.307693772501 9999.859666740273 331 1 1 331 331
144	2450180 10237 321 99985 30.773545855284 9993.677473794844 345 1 1 345 345
145	2460417 22574 324 99988 30.873545855284 9993.777473794844 501 0.099999999998545 0.18553936216449 50.659535249242 5.1558259217558
146	2482991 10368 325 99749 30.916608825114 9969.338155529664 350 1 1 350 350
147	2493359 3935 329 99945 31.587844100304 9986.860040498606 133 1 1 133 133
148	2497294 10298 337 99645 32.570644823218 9958.01700970974 347 1 1 347 347
149	2507592 4362 339 99683 32.572651683373 9961.023329690796 147 1 1 147 147
150	2511954 4170 341 99885 32.610085038719 9981.994017286144 140 1 1 140 140
151	2516124 4326 359 99865 34.099901882417 9980.352006443465 146 1 1 146 146
152	2520450 23653 364 100008 34.199901882417 9995.629940185233 525 0.099999999998545 0.19546673893797 53.089622598187 5.4039592370799
153	2544103 4753 365 99605 34.406190897329 9952.454232304299 160 1 1 160 160
154	2548856 5021 381 99905 35.827445471561 9984.303542605999 169 1 1 169 169
155	2553877 4012 393 99549 37.489107734394 9947.273500150627 135 1 1 135 135
156	2557889 21623 396 99700 37.589107734394 9962.392076961249 480 0.099999999998545 0.19324010510718 48.30417511754 4.882064873532
157	2579512 4709 403 99089 37.829504992818 9898.925744420218 159 1 1 159 159
158	2584221 4625 409 99483 38.479588623406 9939.037263968962 156 1 1 156 156
159	2588846 22761 412 99806 38.579588623406 9975.597082504346 504 0.099999999998545 0.19581310120338 50.9269890046 5.1798964438971
160	2611607 4658 419 98737 39.237857832681 9864.973232737413 157 1 1 157 157
161	2616265 9756 457 99909 45.059218140391 9984.479993601085 329 1 1 329 329
162	2626021 11244 461 100003 45.384918785011 9995.529940185233 379 1 1 379 379
163	2637265 4690 481 98749 47.816656517642 9865.689094173872 158 1 1 158 158
164	2641955 10225 485 99697 48.014650332083 9962.292076961249 345 1 1 345 345
165	2652180 3931 505 99453 51.184326171849 9934.143418279953 132 1 1 132 132
166	2656111 5047 529 99561 53.520088966226 9949.446511817361 170 1 1 170 170
167	2661158 11047 537 99961 53.63036520913 9989.486276631219 372 1 1 372 372
168	2672205 24377 544 99984 53.73036520913 9992.627773103554 540 0.099999999998545 0.18056657514899 54.120165906409 5.4317769502538
169	2696582 4035 573 99441 56.401739618675 9932.786775443156 136 1 1 136 136
170	2700617 4622 593 99741 57.455216447474 9968.963032661431 156 1 1 156 156
171	2705239 9341 607 99647 59.026887453549 9958.019060753534 315 1 1 315 315
172	2714580 20009 612 99652 59.126887453549 9958.119060753534 443 0.099999999998545 0.21549826024693 44.704160531501 4.5441798974081
173	2734589 10806 669 99977 63.749507266294 9992.485521528041 364 1 1 364 364
174	2745395 9590 685 100025 64.757972511259 9999.188190008633 323 1 1 323 323
175	2754985 3800 689 98109 64.867299160661 9804.919163360426 128 1 1 128 128
176	2758785 4840 693 99481 65.42794915419 9938.985806105693 163 1 1 163 163
177	2763625 4953 739 99329 69.114494846909 9922.878908631249 167 1 1 167 167
178	2768578 10565 745 99957 69.887585606519 9989.270747438049 356 1 1 356 356
179	2779143 22694 748 99960 69.987585606519 9989.370747438049 503 0.099999999998545 0.17085850282092 50.544639770575 5.0931220684803