file 5983391 1767628887                                         
version 3
run Lognormal-69-20260105-17:01:27-25149
attr configname Lognormal
attr datetime 20260105-17:01:27
attr datetimef 20260105-170127
attr experiment Lognormal
attr inifile omnetpp.ini
attr iterationvars "$N=100, $p=0.8"
attr iterationvarsd N=100/p=0.8
attr iterationvarsf N=100,p=0.8-
attr measurement "$N=100, $p=0.8"
attr network progetto.DatabaseNetwork
attr processid 25149
attr repetition 4
attr replication #4
attr resultdir results
attr runnumber 69
attr seedset 4
itervar N 100
itervar p 0.8
config description "Lognormal distribution (hotspots) - varia N e p"
config *.user[*].tableDistribution "\"lognormal\""
config *.user[*].lognormalM 1.5
config *.user[*].lognormalS 1.0
config *.numUsers 100
config *.user[*].readProbability 0.8
config network progetto.DatabaseNetwork
config sim-time-limit 10000s
config cpu-time-limit 3600s
config repeat 5
config seed-set 4
config output-vector-file "results/Lognormal-$N=100, $p=0.8-4.vec"
config output-scalar-file "results/Lognormal-$N=100, $p=0.8-4.sca"
config result-dir results
config **.vector-recording true
config **.scalar-recording true
config *.numTables 20
config *.user[*].lambda 0.05
config *.user[*].serviceTime 0.1s

vector 0 DatabaseNetwork.user[0] AccessInterval ETV
vector 1 DatabaseNetwork.user[1] AccessInterval ETV
vector 2 DatabaseNetwork.user[2] AccessInterval ETV
vector 3 DatabaseNetwork.user[3] AccessInterval ETV
vector 4 DatabaseNetwork.user[4] AccessInterval ETV
vector 5 DatabaseNetwork.user[5] AccessInterval ETV
vector 6 DatabaseNetwork.user[6] AccessInterval ETV
vector 7 DatabaseNetwork.user[7] AccessInterval ETV
vector 8 DatabaseNetwork.user[8] AccessInterval ETV
vector 9 DatabaseNetwork.user[9] AccessInterval ETV
vector 10 DatabaseNetwork.user[10] AccessInterval ETV
vector 11 DatabaseNetwork.user[11] AccessInterval ETV
vector 12 DatabaseNetwork.user[12] AccessInterval ETV
vector 13 DatabaseNetwork.user[13] AccessInterval ETV
vector 14 DatabaseNetwork.user[14] AccessInterval ETV
vector 15 DatabaseNetwork.user[15] AccessInterval ETV
vector 16 DatabaseNetwork.user[16] AccessInterval ETV
vector 17 DatabaseNetwork.user[17] AccessInterval ETV
vector 18 DatabaseNetwork.user[18] AccessInterval ETV
vector 19 DatabaseNetwork.user[19] AccessInterval ETV
vector 20 DatabaseNetwork.user[20] AccessInterval ETV
vector 21 DatabaseNetwork.user[21] AccessInterval ETV
vector 22 DatabaseNetwork.user[22] AccessInterval ETV
vector 23 DatabaseNetwork.user[23] AccessInterval ETV
vector 24 DatabaseNetwork.user[24] AccessInterval ETV
vector 25 DatabaseNetwork.user[25] AccessInterval ETV
vector 26 DatabaseNetwork.user[26] AccessInterval ETV
vector 27 DatabaseNetwork.user[27] AccessInterval ETV
vector 28 DatabaseNetwork.user[28] AccessInterval ETV
vector 29 DatabaseNetwork.user[29] AccessInterval ETV
vector 30 DatabaseNetwork.user[30] AccessInterval ETV
vector 31 DatabaseNetwork.user[31] AccessInterval ETV
vector 32 DatabaseNetwork.user[32] AccessInterval ETV
vector 33 DatabaseNetwork.user[33] AccessInterval ETV
vector 34 DatabaseNetwork.user[34] AccessInterval ETV
vector 35 DatabaseNetwork.user[35] AccessInterval ETV
vector 36 DatabaseNetwork.user[36] AccessInterval ETV
vector 37 DatabaseNetwork.user[37] AccessInterval ETV
vector 38 DatabaseNetwork.user[38] AccessInterval ETV
vector 39 DatabaseNetwork.user[39] AccessInterval ETV
vector 40 DatabaseNetwork.user[40] AccessInterval ETV
vector 41 DatabaseNetwork.user[41] AccessInterval ETV
vector 42 DatabaseNetwork.user[42] AccessInterval ETV
vector 43 DatabaseNetwork.user[43] AccessInterval ETV
vector 44 DatabaseNetwork.user[44] AccessInterval ETV
vector 45 DatabaseNetwork.user[45] AccessInterval ETV
vector 46 DatabaseNetwork.user[46] AccessInterval ETV
vector 47 DatabaseNetwork.user[47] AccessInterval ETV
vector 48 DatabaseNetwork.user[48] AccessInterval ETV
vector 49 DatabaseNetwork.user[49] AccessInterval ETV
vector 50 DatabaseNetwork.user[50] AccessInterval ETV
vector 51 DatabaseNetwork.user[51] AccessInterval ETV
vector 52 DatabaseNetwork.user[52] AccessInterval ETV
vector 53 DatabaseNetwork.user[53] AccessInterval ETV
vector 54 DatabaseNetwork.user[54] AccessInterval ETV
vector 55 DatabaseNetwork.user[55] AccessInterval ETV
vector 56 DatabaseNetwork.user[56] AccessInterval ETV
vector 57 DatabaseNetwork.user[57] AccessInterval ETV
vector 58 DatabaseNetwork.user[58] AccessInterval ETV
vector 59 DatabaseNetwork.user[59] AccessInterval ETV
vector 60 DatabaseNetwork.user[60] AccessInterval ETV
vector 61 DatabaseNetwork.user[61] AccessInterval ETV
vector 62 DatabaseNetwork.user[62] AccessInterval ETV
vector 63 DatabaseNetwork.user[63] AccessInterval ETV
vector 64 DatabaseNetwork.user[64] AccessInterval ETV
vector 65 DatabaseNetwork.user[65] AccessInterval ETV
vector 66 DatabaseNetwork.user[66] AccessInterval ETV
vector 67 DatabaseNetwork.user[67] AccessInterval ETV
vector 68 DatabaseNetwork.user[68] AccessInterval ETV
vector 69 DatabaseNetwork.user[69] AccessInterval ETV
vector 70 DatabaseNetwork.user[70] AccessInterval ETV
vector 71 DatabaseNetwork.user[71] AccessInterval ETV
vector 72 DatabaseNetwork.user[72] AccessInterval ETV
vector 73 DatabaseNetwork.user[73] AccessInterval ETV
vector 74 DatabaseNetwork.user[74] AccessInterval ETV
vector 75 DatabaseNetwork.user[75] AccessInterval ETV
vector 76 DatabaseNetwork.user[76] AccessInterval ETV
vector 77 DatabaseNetwork.user[77] AccessInterval ETV
vector 78 DatabaseNetwork.user[78] AccessInterval ETV
vector 79 DatabaseNetwork.user[79] AccessInterval ETV
vector 80 DatabaseNetwork.user[80] AccessInterval ETV
vector 81 DatabaseNetwork.user[81] AccessInterval ETV
vector 82 DatabaseNetwork.user[82] AccessInterval ETV
vector 83 DatabaseNetwork.user[83] AccessInterval ETV
vector 84 DatabaseNetwork.user[84] AccessInterval ETV
vector 85 DatabaseNetwork.user[85] AccessInterval ETV
vector 86 DatabaseNetwork.user[86] AccessInterval ETV
vector 87 DatabaseNetwork.user[87] AccessInterval ETV
vector 88 DatabaseNetwork.user[88] AccessInterval ETV
vector 89 DatabaseNetwork.user[89] AccessInterval ETV
vector 90 DatabaseNetwork.user[90] AccessInterval ETV
vector 91 DatabaseNetwork.user[91] AccessInterval ETV
vector 92 DatabaseNetwork.user[92] AccessInterval ETV
vector 93 DatabaseNetwork.user[93] AccessInterval ETV
vector 94 DatabaseNetwork.user[94] AccessInterval ETV
vector 95 DatabaseNetwork.user[95] AccessInterval ETV
vector 96 DatabaseNetwork.user[96] AccessInterval ETV
vector 97 DatabaseNetwork.user[97] AccessInterval ETV
vector 98 DatabaseNetwork.user[98] AccessInterval ETV
vector 99 DatabaseNetwork.user[99] AccessInterval ETV
vector 100 DatabaseNetwork.user[21] ReadAccesses ETV
vector 101 DatabaseNetwork.user[14] ReadAccesses ETV
vector 102 DatabaseNetwork.user[32] ReadAccesses ETV
vector 103 DatabaseNetwork.user[21] WaitTime ETV
vector 104 DatabaseNetwork.user[14] WaitTime ETV
vector 105 DatabaseNetwork.user[32] WaitTime ETV
vector 106 DatabaseNetwork.user[41] ReadAccesses ETV
vector 107 DatabaseNetwork.user[41] WaitTime ETV
vector 108 DatabaseNetwork.user[67] ReadAccesses ETV
vector 109 DatabaseNetwork.user[43] ReadAccesses ETV
vector 110 DatabaseNetwork.user[67] WaitTime ETV
vector 111 DatabaseNetwork.user[36] ReadAccesses ETV
vector 112 DatabaseNetwork.user[43] WaitTime ETV
vector 113 DatabaseNetwork.user[99] WriteAccesses ETV
vector 114 DatabaseNetwork.user[36] WaitTime ETV
vector 115 DatabaseNetwork.user[99] WaitTime ETV
vector 116 DatabaseNetwork.user[51] ReadAccesses ETV
vector 117 DatabaseNetwork.user[51] WaitTime ETV
vector 118 DatabaseNetwork.user[50] ReadAccesses ETV
vector 119 DatabaseNetwork.user[50] WaitTime ETV
vector 120 DatabaseNetwork.user[95] WriteAccesses ETV
vector 121 DatabaseNetwork.user[95] WaitTime ETV
vector 122 DatabaseNetwork.user[66] ReadAccesses ETV
vector 123 DatabaseNetwork.user[66] WaitTime ETV
vector 124 DatabaseNetwork.user[85] ReadAccesses ETV
vector 125 DatabaseNetwork.user[11] ReadAccesses ETV
vector 126 DatabaseNetwork.user[85] WaitTime ETV
vector 127 DatabaseNetwork.user[11] WaitTime ETV
vector 128 DatabaseNetwork.user[68] ReadAccesses ETV
vector 129 DatabaseNetwork.user[51] WriteAccesses ETV
vector 130 DatabaseNetwork.user[68] WaitTime ETV
vector 131 DatabaseNetwork.user[50] WriteAccesses ETV
vector 132 DatabaseNetwork.user[28] WriteAccesses ETV
vector 133 DatabaseNetwork.user[54] WriteAccesses ETV
vector 134 DatabaseNetwork.user[28] WaitTime ETV
vector 135 DatabaseNetwork.user[54] WaitTime ETV
vector 136 DatabaseNetwork.user[3] ReadAccesses ETV
vector 137 DatabaseNetwork.user[48] ReadAccesses ETV
vector 138 DatabaseNetwork.user[53] ReadAccesses ETV
vector 139 DatabaseNetwork.user[3] WaitTime ETV
vector 140 DatabaseNetwork.user[48] WaitTime ETV
vector 141 DatabaseNetwork.user[86] ReadAccesses ETV
vector 142 DatabaseNetwork.user[53] WaitTime ETV
vector 143 DatabaseNetwork.user[73] WriteAccesses ETV
vector 144 DatabaseNetwork.user[86] WaitTime ETV
vector 145 DatabaseNetwork.user[73] WaitTime ETV
vector 146 DatabaseNetwork.user[22] ReadAccesses ETV
vector 147 DatabaseNetwork.user[22] WaitTime ETV
vector 148 DatabaseNetwork.user[71] ReadAccesses ETV
vector 149 DatabaseNetwork.user[71] WaitTime ETV
vector 150 DatabaseNetwork.user[10] WriteAccesses ETV
vector 151 DatabaseNetwork.user[10] WaitTime ETV
vector 152 DatabaseNetwork.user[83] ReadAccesses ETV
vector 153 DatabaseNetwork.user[13] ReadAccesses ETV
vector 154 DatabaseNetwork.user[83] WaitTime ETV
vector 155 DatabaseNetwork.user[13] WaitTime ETV
vector 156 DatabaseNetwork.user[69] ReadAccesses ETV
vector 157 DatabaseNetwork.user[69] WaitTime ETV
vector 158 DatabaseNetwork.user[21] WriteAccesses ETV
vector 159 DatabaseNetwork.user[77] WriteAccesses ETV
vector 160 DatabaseNetwork.user[77] WaitTime ETV
vector 161 DatabaseNetwork.user[97] ReadAccesses ETV
vector 162 DatabaseNetwork.user[16] WriteAccesses ETV
vector 163 DatabaseNetwork.user[94] ReadAccesses ETV
vector 164 DatabaseNetwork.user[97] WaitTime ETV
vector 165 DatabaseNetwork.user[16] WaitTime ETV
vector 166 DatabaseNetwork.user[94] WaitTime ETV
vector 167 DatabaseNetwork.user[65] ReadAccesses ETV
vector 168 DatabaseNetwork.user[65] WaitTime ETV
vector 169 DatabaseNetwork.user[35] ReadAccesses ETV
vector 170 DatabaseNetwork.user[35] WaitTime ETV
vector 171 DatabaseNetwork.user[16] ReadAccesses ETV
vector 172 DatabaseNetwork.user[54] ReadAccesses ETV
vector 173 DatabaseNetwork.user[75] WriteAccesses ETV
vector 174 DatabaseNetwork.user[75] WaitTime ETV
vector 175 DatabaseNetwork.user[73] ReadAccesses ETV
vector 176 DatabaseNetwork.user[89] WriteAccesses ETV
vector 177 DatabaseNetwork.user[89] WaitTime ETV
vector 178 DatabaseNetwork.user[93] ReadAccesses ETV
vector 179 DatabaseNetwork.user[25] WriteAccesses ETV
vector 180 DatabaseNetwork.user[93] WaitTime ETV
vector 181 DatabaseNetwork.user[25] WaitTime ETV
vector 182 DatabaseNetwork.user[86] WriteAccesses ETV
vector 183 DatabaseNetwork.user[79] ReadAccesses ETV
vector 184 DatabaseNetwork.user[88] ReadAccesses ETV
vector 185 DatabaseNetwork.user[79] WaitTime ETV
vector 186 DatabaseNetwork.user[88] WaitTime ETV
vector 187 DatabaseNetwork.user[34] WriteAccesses ETV
vector 188 DatabaseNetwork.user[77] ReadAccesses ETV
vector 189 DatabaseNetwork.user[34] WaitTime ETV
vector 190 DatabaseNetwork.user[29] WriteAccesses ETV
vector 191 DatabaseNetwork.user[29] WaitTime ETV
vector 192 DatabaseNetwork.user[80] WriteAccesses ETV
vector 193 DatabaseNetwork.user[80] WaitTime ETV
vector 194 DatabaseNetwork.user[76] ReadAccesses ETV
vector 195 DatabaseNetwork.user[76] WaitTime ETV
vector 196 DatabaseNetwork.user[11] WriteAccesses ETV
vector 197 DatabaseNetwork.user[58] ReadAccesses ETV
vector 198 DatabaseNetwork.user[58] WaitTime ETV
vector 199 DatabaseNetwork.user[18] ReadAccesses ETV
vector 200 DatabaseNetwork.user[40] ReadAccesses ETV
vector 201 DatabaseNetwork.user[18] WaitTime ETV
vector 202 DatabaseNetwork.user[25] ReadAccesses ETV
vector 203 DatabaseNetwork.user[40] WaitTime ETV
vector 204 DatabaseNetwork.user[49] ReadAccesses ETV
vector 205 DatabaseNetwork.user[49] WaitTime ETV
vector 206 DatabaseNetwork.user[47] ReadAccesses ETV
vector 207 DatabaseNetwork.user[47] WaitTime ETV
vector 208 DatabaseNetwork.user[91] ReadAccesses ETV
vector 209 DatabaseNetwork.user[91] WaitTime ETV
vector 210 DatabaseNetwork.user[90] ReadAccesses ETV
vector 211 DatabaseNetwork.user[90] WaitTime ETV
vector 212 DatabaseNetwork.user[64] WriteAccesses ETV
vector 213 DatabaseNetwork.user[64] WaitTime ETV
vector 214 DatabaseNetwork.user[72] ReadAccesses ETV
vector 215 DatabaseNetwork.user[72] WaitTime ETV
vector 216 DatabaseNetwork.user[60] ReadAccesses ETV
vector 217 DatabaseNetwork.user[60] WaitTime ETV
vector 218 DatabaseNetwork.user[70] ReadAccesses ETV
vector 219 DatabaseNetwork.user[2] ReadAccesses ETV
vector 220 DatabaseNetwork.user[70] WaitTime ETV
vector 221 DatabaseNetwork.user[2] WaitTime ETV
vector 222 DatabaseNetwork.user[96] ReadAccesses ETV
vector 223 DatabaseNetwork.user[96] WaitTime ETV
vector 224 DatabaseNetwork.user[23] ReadAccesses ETV
vector 225 DatabaseNetwork.user[23] WaitTime ETV
vector 226 DatabaseNetwork.user[87] ReadAccesses ETV
vector 227 DatabaseNetwork.user[87] WaitTime ETV
vector 228 DatabaseNetwork.user[30] WriteAccesses ETV
vector 229 DatabaseNetwork.user[9] ReadAccesses ETV
vector 230 DatabaseNetwork.user[10] ReadAccesses ETV
vector 231 DatabaseNetwork.user[30] WaitTime ETV
vector 232 DatabaseNetwork.user[9] WaitTime ETV
vector 233 DatabaseNetwork.user[52] WriteAccesses ETV
vector 234 DatabaseNetwork.user[52] WaitTime ETV
vector 235 DatabaseNetwork.user[27] ReadAccesses ETV
vector 236 DatabaseNetwork.user[27] WaitTime ETV
vector 237 DatabaseNetwork.user[7] ReadAccesses ETV
vector 238 DatabaseNetwork.user[7] WaitTime ETV
vector 239 DatabaseNetwork.user[33] ReadAccesses ETV
vector 240 DatabaseNetwork.user[33] WaitTime ETV
vector 241 DatabaseNetwork.user[82] ReadAccesses ETV
vector 242 DatabaseNetwork.user[98] WriteAccesses ETV
vector 243 DatabaseNetwork.user[82] WaitTime ETV
vector 244 DatabaseNetwork.user[98] WaitTime ETV
vector 245 DatabaseNetwork.user[81] ReadAccesses ETV
vector 246 DatabaseNetwork.user[19] ReadAccesses ETV
vector 247 DatabaseNetwork.user[81] WaitTime ETV
vector 248 DatabaseNetwork.user[19] WaitTime ETV
vector 249 DatabaseNetwork.user[74] ReadAccesses ETV
vector 250 DatabaseNetwork.user[74] WaitTime ETV
vector 251 DatabaseNetwork.user[37] ReadAccesses ETV
vector 252 DatabaseNetwork.user[37] WaitTime ETV
vector 253 DatabaseNetwork.user[78] ReadAccesses ETV
vector 254 DatabaseNetwork.user[75] ReadAccesses ETV
vector 255 DatabaseNetwork.user[78] WaitTime ETV
vector 256 DatabaseNetwork.user[64] ReadAccesses ETV
vector 257 DatabaseNetwork.user[9] WriteAccesses ETV
vector 258 DatabaseNetwork.user[91] WriteAccesses ETV
vector 259 DatabaseNetwork.user[92] ReadAccesses ETV
vector 260 DatabaseNetwork.user[92] WaitTime ETV
vector 261 DatabaseNetwork.user[8] ReadAccesses ETV
vector 262 DatabaseNetwork.user[15] ReadAccesses ETV
vector 263 DatabaseNetwork.user[8] WaitTime ETV
vector 264 DatabaseNetwork.user[15] WaitTime ETV
vector 265 DatabaseNetwork.user[99] ReadAccesses ETV
vector 266 DatabaseNetwork.user[6] WriteAccesses ETV
vector 267 DatabaseNetwork.user[30] ReadAccesses ETV
vector 268 DatabaseNetwork.user[6] WaitTime ETV
vector 269 DatabaseNetwork.user[56] ReadAccesses ETV
vector 270 DatabaseNetwork.user[56] WaitTime ETV
vector 271 DatabaseNetwork.user[94] WriteAccesses ETV
vector 272 DatabaseNetwork.user[19] WriteAccesses ETV
vector 273 DatabaseNetwork.user[29] ReadAccesses ETV
vector 274 DatabaseNetwork.user[84] ReadAccesses ETV
vector 275 DatabaseNetwork.user[84] WaitTime ETV
vector 276 DatabaseNetwork.user[20] ReadAccesses ETV
vector 277 DatabaseNetwork.user[20] WaitTime ETV
vector 278 DatabaseNetwork.user[44] ReadAccesses ETV
vector 279 DatabaseNetwork.user[44] WaitTime ETV
vector 280 DatabaseNetwork.user[34] ReadAccesses ETV
vector 281 DatabaseNetwork.user[97] WriteAccesses ETV
vector 282 DatabaseNetwork.user[39] WriteAccesses ETV
vector 283 DatabaseNetwork.user[31] WriteAccesses ETV
vector 284 DatabaseNetwork.user[39] WaitTime ETV
vector 285 DatabaseNetwork.user[31] WaitTime ETV
vector 286 DatabaseNetwork.user[95] ReadAccesses ETV
vector 287 DatabaseNetwork.user[18] WriteAccesses ETV
vector 288 DatabaseNetwork.user[63] ReadAccesses ETV
vector 289 DatabaseNetwork.user[63] WaitTime ETV
vector 290 DatabaseNetwork.user[49] WriteAccesses ETV
vector 291 DatabaseNetwork.user[57] ReadAccesses ETV
vector 292 DatabaseNetwork.user[57] WaitTime ETV
vector 293 DatabaseNetwork.user[80] ReadAccesses ETV
vector 294 DatabaseNetwork.user[5] ReadAccesses ETV
vector 295 DatabaseNetwork.user[5] WaitTime ETV
vector 296 DatabaseNetwork.user[24] ReadAccesses ETV
vector 297 DatabaseNetwork.user[24] WaitTime ETV
vector 298 DatabaseNetwork.user[55] ReadAccesses ETV
vector 299 DatabaseNetwork.user[46] ReadAccesses ETV
vector 300 DatabaseNetwork.user[55] WaitTime ETV
vector 301 DatabaseNetwork.user[46] WaitTime ETV
vector 302 DatabaseNetwork.user[61] WriteAccesses ETV
vector 303 DatabaseNetwork.user[61] WaitTime ETV
vector 304 DatabaseNetwork.user[33] WriteAccesses ETV
vector 305 DatabaseNetwork.user[78] WriteAccesses ETV
vector 306 DatabaseNetwork.user[52] ReadAccesses ETV
vector 307 DatabaseNetwork.user[6] ReadAccesses ETV
vector 308 DatabaseNetwork.user[31] ReadAccesses ETV
vector 309 DatabaseNetwork.user[1] ReadAccesses ETV
vector 310 DatabaseNetwork.user[67] WriteAccesses ETV
vector 311 DatabaseNetwork.user[1] WaitTime ETV
vector 312 DatabaseNetwork.user[17] ReadAccesses ETV
vector 313 DatabaseNetwork.user[17] WaitTime ETV
vector 314 DatabaseNetwork.user[39] ReadAccesses ETV
vector 315 DatabaseNetwork.user[59] ReadAccesses ETV
vector 316 DatabaseNetwork.user[59] WaitTime ETV
vector 317 DatabaseNetwork.user[66] WriteAccesses ETV
vector 318 DatabaseNetwork.user[74] WriteAccesses ETV
vector 319 DatabaseNetwork.user[63] WriteAccesses ETV
vector 320 DatabaseNetwork.user[89] ReadAccesses ETV
vector 321 DatabaseNetwork.user[93] WriteAccesses ETV
vector 322 DatabaseNetwork.user[62] WriteAccesses ETV
vector 323 DatabaseNetwork.user[62] WaitTime ETV
vector 324 DatabaseNetwork.user[96] WriteAccesses ETV
vector 325 DatabaseNetwork.user[62] ReadAccesses ETV
vector 326 DatabaseNetwork.user[69] WriteAccesses ETV
vector 327 DatabaseNetwork.user[45] WriteAccesses ETV
vector 328 DatabaseNetwork.user[45] WaitTime ETV
vector 329 DatabaseNetwork.user[42] WriteAccesses ETV
vector 330 DatabaseNetwork.user[42] WaitTime ETV
vector 331 DatabaseNetwork.user[20] WriteAccesses ETV
vector 332 DatabaseNetwork.user[38] ReadAccesses ETV
vector 333 DatabaseNetwork.user[38] WaitTime ETV
vector 334 DatabaseNetwork.user[53] WriteAccesses ETV
vector 335 DatabaseNetwork.user[0] ReadAccesses ETV
vector 336 DatabaseNetwork.user[0] WaitTime ETV
vector 337 DatabaseNetwork.user[45] ReadAccesses ETV
vector 338 DatabaseNetwork.user[4] ReadAccesses ETV
vector 339 DatabaseNetwork.user[4] WaitTime ETV
vector 340 DatabaseNetwork.user[12] ReadAccesses ETV
vector 341 DatabaseNetwork.user[12] WaitTime ETV
vector 342 DatabaseNetwork.user[98] ReadAccesses ETV
vector 343 DatabaseNetwork.user[26] WriteAccesses ETV
vector 344 DatabaseNetwork.user[26] WaitTime ETV
vector 345 DatabaseNetwork.user[38] WriteAccesses ETV
vector 346 DatabaseNetwork.user[85] WriteAccesses ETV
vector 347 DatabaseNetwork.user[15] WriteAccesses ETV
vector 348 DatabaseNetwork.user[2] WriteAccesses ETV
vector 349 DatabaseNetwork.user[22] WriteAccesses ETV
vector 350 DatabaseNetwork.user[92] WriteAccesses ETV
vector 351 DatabaseNetwork.user[42] ReadAccesses ETV
vector 352 DatabaseNetwork.user[82] WriteAccesses ETV
vector 353 DatabaseNetwork.user[41] WriteAccesses ETV
vector 354 DatabaseNetwork.user[28] ReadAccesses ETV
vector 355 DatabaseNetwork.user[83] WriteAccesses ETV
vector 356 DatabaseNetwork.user[32] WriteAccesses ETV
vector 357 DatabaseNetwork.user[8] WriteAccesses ETV
vector 358 DatabaseNetwork.user[61] ReadAccesses ETV
vector 359 DatabaseNetwork.user[23] WriteAccesses ETV
vector 360 DatabaseNetwork.user[35] WriteAccesses ETV
vector 361 DatabaseNetwork.user[26] ReadAccesses ETV
vector 362 DatabaseNetwork.user[84] WriteAccesses ETV
vector 363 DatabaseNetwork.user[59] WriteAccesses ETV
vector 364 DatabaseNetwork.user[43] WriteAccesses ETV
vector 365 DatabaseNetwork.user[58] WriteAccesses ETV
vector 366 DatabaseNetwork.user[90] WriteAccesses ETV
vector 367 DatabaseNetwork.user[4] WriteAccesses ETV
vector 368 DatabaseNetwork.user[57] WriteAccesses ETV
vector 369 DatabaseNetwork.user[87] WriteAccesses ETV
vector 370 DatabaseNetwork.user[0] WriteAccesses ETV
vector 371 DatabaseNetwork.user[47] WriteAccesses ETV
vector 372 DatabaseNetwork.user[46] WriteAccesses ETV
vector 373 DatabaseNetwork.user[55] WriteAccesses ETV
vector 374 DatabaseNetwork.user[14] WriteAccesses ETV
vector 375 DatabaseNetwork.user[44] WriteAccesses ETV
vector 376 DatabaseNetwork.user[7] WriteAccesses ETV
vector 377 DatabaseNetwork.user[81] WriteAccesses ETV
vector 378 DatabaseNetwork.user[56] WriteAccesses ETV
vector 379 DatabaseNetwork.user[71] WriteAccesses ETV
vector 380 DatabaseNetwork.user[12] WriteAccesses ETV
vector 381 DatabaseNetwork.user[13] WriteAccesses ETV
vector 382 DatabaseNetwork.user[79] WriteAccesses ETV
vector 383 DatabaseNetwork.user[60] WriteAccesses ETV
vector 384 DatabaseNetwork.user[88] WriteAccesses ETV
vector 385 DatabaseNetwork.user[3] WriteAccesses ETV
vector 386 DatabaseNetwork.user[1] WriteAccesses ETV
vector 387 DatabaseNetwork.user[36] WriteAccesses ETV
vector 388 DatabaseNetwork.user[37] WriteAccesses ETV
vector 389 DatabaseNetwork.user[70] WriteAccesses ETV
vector 390 DatabaseNetwork.user[5] WriteAccesses ETV
vector 391 DatabaseNetwork.user[72] WriteAccesses ETV
vector 392 DatabaseNetwork.user[40] WriteAccesses ETV
vector 393 DatabaseNetwork.user[68] WriteAccesses ETV
vector 394 DatabaseNetwork.user[76] WriteAccesses ETV
vector 395 DatabaseNetwork.user[24] WriteAccesses ETV
vector 396 DatabaseNetwork.user[17] WriteAccesses ETV
vector 397 DatabaseNetwork.user[27] WriteAccesses ETV
vector 398 DatabaseNetwork.user[65] WriteAccesses ETV
vector 399 DatabaseNetwork.user[48] WriteAccesses ETV
0	22141 21581 0 200305 0 9993.216307538477 512 0.027951036611701 150.76450130916 10015.974993827 386323.90546546
1	43722 20346 0 199733 0 9967.257512997569 483 0.058266062879796 137.06835154484 10017.414255682 418924.29349612
2	64068 22444 0 200437 0 9998.096935369553 533 0.014411624455021 172.61553482813 10018.710990927 405794.52436949
3	86512 23427 0 200133 0 9984.289247019648 556 0.01960941008114 127.78925796048 10019.344266762 363503.6071638
4	109939 20245 0 200425 0 9997.7189065612 481 0.12670989152574 186.28878741438 10004.869226844 431371.1703386
5	130184 22251 0 200139 0 9984.411623844109 528 0.0046063256719765 113.59204022529 10003.988106228 360469.70180861
6	152435 20595 0 199891 0 9976.154254394093 489 0.050690123765491 185.54388383663 10016.412793257 431097.21351281
7	173030 18745 0 199297 0 9944.369386578382 445 0.025047654481013 124.47794699339 10013.796453984 428422.00042565
8	191775 20328 0 199957 0 9978.32325847804 483 0.029682781808516 134.56673251108 10028.112171718 404642.63563601
9	212103 21294 0 200085 0 9982.574808084659 506 0.0021693309033906 171.00507415609 10041.481855551 406590.05313092
10	233397 21114 0 200445 0 9998.711661209663 489 0.017394842561767 99.295964439756 10011.407043616 386882.55545322
11	254511 21348 0 200289 0 9992.661233311885 495 0.083240419887749 137.41731168514 10021.700892598 392290.2427821
12	275859 21539 0 199921 0 9977.483250077046 499 0.013812701516461 102.79287427823 10010.637186609 374726.91032517
13	297398 24223 0 200185 0 9986.494884814106 562 0.0081765692822606 160.01783158595 10025.746160555 366543.92907702
14	321621 21558 0 198965 0 9929.633540429604 500 0.036033632555618 148.69077261612 10011.316815583 431336.4909591
15	343179 21785 0 199251 0 9942.168960762863 505 0.043241924256889 154.93963929287 10039.705655842 397535.43461824
16	364964 22194 0 200441 0 9998.447390077847 515 0.037798138526654 151.5771546567 10008.406083344 396111.03491611
17	387158 21179 0 199889 0 9976.127342657511 490 0.043271436437669 151.06760131254 10052.589043429 430310.30301572
18	408337 21578 0 199839 0 9972.427518212497 500 0.087730005418419 120.12797670996 10016.274245513 388684.18134913
19	429915 22261 0 200399 0 9997.187055124002 516 0.00059003880748116 135.70230705451 10003.467627011 389869.00691238
20	452176 23559 0 200453 0 9999.251524084754 545 0.034882886958047 120.99824279686 10074.526482494 375894.75862429
21	475735 22379 0 200255 0 9989.885098264952 519 0.0039978083200885 175.81548365096 10024.841318748 412091.15873216
22	498114 22343 0 200087 0 9982.578183269637 518 0.035157129006621 121.52812809297 10028.93983973 388288.16262854
23	520457 21579 0 199979 0 9978.845226019606 501 0.016510351854479 117.71001216969 10011.598173168 384480.36462949
24	542036 21944 0 200281 0 9992.218396578942 509 0.027363887810675 114.85754438929 10018.537844004 355613.81545489
25	563980 22233 0 199673 0 9963.618833675053 516 0.010776088221176 98.859127776958 10004.259814453 368390.75832255
26	586213 21713 0 200201 0 9987.771003183863 503 0.026231746274973 195.82249236797 10008.206233144 408194.88439368
27	607926 20971 0 200345 0 9994.536065119721 485 0.043743917261381 174.85127740483 10009.480217768 432805.34941796
28	628897 21640 0 200325 0 9994.047359605565 502 0.063990883252291 118.38306936121 10028.531047496 380319.68219761
29	650537 22052 0 200431 0 9997.965002412332 512 0.017786370191804 130.76095664841 10021.9008919 392069.4295381
30	672589 21937 0 199947 0 9978.150839515095 509 0.10910812850586 105.22468070047 10003.956844717 376943.05791579
31	694526 20081 0 200377 0 9996.318467979751 465 0.0029276079142465 225.97341128229 10025.924845596 469786.63117489
32	714607 20443 0 200321 0 9993.946308683094 474 0.024399085789254 151.30863934621 10049.556056349 436681.96077937
33	735050 20329 0 200121 0 9983.66855841193 473 0.028432990405764 113.1974852458 10001.364018562 390157.32202076
34	755379 22940 0 200309 0 9993.361002933355 532 0.013191844723058 98.095298794046 10013.667270039 361129.33048209
35	778319 20321 0 200175 0 9986.029178337925 471 0.10605510302418 130.4021538872 10007.881312054 441450.62738246
36	798640 21082 0 199265 0 9942.57052608699 489 0.016624277088844 155.05756441139 10010.601618967 426346.93162454
37	819722 20875 0 199925 0 9977.692061902948 484 0.023830638619895 149.74967683045 10013.417720934 416433.11508556
38	840597 22523 0 200245 0 9989.706957771173 522 0.020697569030886 106.36200019448 10016.884349604 394549.23373682
39	863120 21690 0 200213 0 9988.306679469118 502 0.020948887183916 100.18785313578 10012.116273598 363049.32969178
40	884810 21136 0 198565 0 9909.511738256651 490 0.094679961160146 114.16481018084 10005.996977919 397635.72307694
41	905946 20990 0 200151 0 9984.751784197559 487 0.028672463082605 134.12321229549 10007.41576101 407550.56396307
42	926936 21770 0 200419 0 9997.545067165832 504 0.014207127396764 97.394539035889 10022.719027543 369093.0539735
43	948706 21530 0 199565 0 9958.033382154036 499 0.081222784856915 109.76742758675 10001.296610386 382967.12606411
44	970236 19604 0 200357 0 9994.947864158576 453 0.054088319922156 123.50069233603 10023.145515874 467534.21921064
45	989840 21333 0 199857 0 9974.029983440244 495 0.038886139808649 113.69269563982 10016.735467298 387286.24727209
46	1011173 22662 0 200181 0 9986.291227458355 526 0.0092675165756344 180.39521008398 10006.457563207 402728.16757793
47	1033835 22279 0 200329 0 9994.144781251402 516 0.0040804566052044 115.28186909832 10014.02305557 392692.67280195
48	1056114 21785 0 200341 0 9994.468914279937 505 0.12321211148506 184.03343769538 10064.68335099 403264.65491069
49	1077899 21394 0 200365 0 9995.525935979996 496 0.0057818855146234 148.69778437745 10015.247758164 429640.66589376
50	1099293 21896 0 200247 0 9989.70776482921 508 0.053667459235693 109.86591919402 10009.303446354 392582.05330382
51	1121189 23305 0 200187 0 9986.563660410009 540 0.01376886654365 129.43145861845 10005.006342183 372835.07704414
52	1144494 22815 0 199163 0 9938.235948734868 529 0.032059177584278 128.65974354652 10033.271713303 375490.28598682
53	1167309 23234 0 200253 0 9989.850000549535 539 0.012847436365084 104.54017371677 10039.807215694 363446.95680856
54	1190543 21523 0 200227 0 9988.975372106753 499 0.010476122183368 176.12068051805 10010.020307682 425461.9422841
55	1212066 21644 0 196153 0 9789.024378123454 502 0.034839192369664 216.2494976214 10005.273875745 405020.40342638
56	1233710 22113 0 200295 0 9992.731920922474 512 0.018807269582492 131.15941693727 10006.938496655 428739.63255848
57	1255823 20971 0 199913 0 9977.132243147714 486 0.0070655438334362 136.97317839814 10032.28212885 423160.43437116
58	1276794 22187 0 200403 0 9997.225533970916 514 0.088737357747457 129.07837045795 10047.012694348 386088.57813047
59	1298981 21138 0 199485 0 9954.892014340241 490 0.0024846621910172 137.21529107345 10042.729210793 435857.88598019
60	1320119 21623 0 199513 0 9955.716589561117 501 0.046701880162056 96.156825877639 10000.502373405 373276.12600779
61	1341742 21116 0 199621 0 9961.254346168983 490 0.016974319868717 159.43521620384 10000.435204597 444648.03120796
62	1362858 20764 0 200065 0 9981.74892160215 482 0.11700933731659 152.70607221176 10012.276095734 436835.90573666
63	1383622 22438 0 199951 0 9978.186815204689 520 0.010843016628631 140.17623283228 10002.555672994 389157.21099239
64	1406060 22563 0 198367 0 9900.372269005634 522 0.016479108164589 125.24982652425 10002.181960392 377452.84240522
65	1428623 21797 0 200269 0 9990.913130520512 505 0.016522105534461 106.79584651246 10013.992797769 385329.00457774
66	1450420 21959 0 200265 0 9990.590779338438 509 0.014403683868484 132.74091102854 10007.58057994 386399.49574758