version 3
run Lognormal-18-20260105-17:15:12-28123
attr configname Lognormal
attr datetime 20260105-17:15:12
attr datetimef 20260105-171512
attr experiment Lognormal
attr inifile omnetpp.ini
attr iterationvars "$N=50, $p=0.8"
attr iterationvarsd N=50/p=0.8
attr iterationvarsf N=50,p=0.8-
attr measurement "$N=50, $p=0.8"
attr network progetto.DatabaseNetwork
attr processid 28123
attr repetition 3
attr replication #3
attr resultdir results
attr runnumber 18
attr seedset 3
itervar N 50
itervar p 0.8
config description "Lognormal distribution (hotspots) - varia N e p"
config *.user[*].tableDistribution "\"lognormal\""
config *.user[*].lognormalM 1.5
config *.user[*].lognormalS 1.0
config *.numUsers 50
config *.user[*].readProbability 0.8
config network progetto.DatabaseNetwork
config sim-time-limit 10000s
config cpu-time-limit 3600s
config repeat 5
config seed-set 3
config output-vector-file "results/Lognormal-$N=50, $p=0.8-3.vec"
config output-scalar-file "results/Lognormal-$N=50, $p=0.8-3.sca"
config result-dir results
config **.vector-recording true
config **.scalar-recording true
config *.numTables 20
config *.user[*].lambda 0.05
config *.user[*].serviceTime 0.1s

vector 0 DatabaseNetwork.user[0] AccessInterval ETV
vector 1 DatabaseNetwork.user[1] AccessInterval ETV
vector 2 DatabaseNetwork.user[2] AccessInterval ETV
vector 3 DatabaseNetwork.user[3] AccessInterval ETV
vector 4 DatabaseNetwork.user[4] AccessInterval ETV
vector 5 DatabaseNetwork.user[5] AccessInterval ETV
vector 6 DatabaseNetwork.user[6] AccessInterval ETV
vector 7 DatabaseNetwork.user[7] AccessInterval ETV
vector 8 DatabaseNetwork.user[8] AccessInterval ETV
vector 9 DatabaseNetwork.user[9] AccessInterval ETV
vector 10 DatabaseNetwork.user[10] AccessInterval ETV
vector 11 DatabaseNetwork.user[11] AccessInterval ETV
vector 12 DatabaseNetwork.user[12] AccessInterval ETV
vector 13 DatabaseNetwork.user[13] AccessInterval ETV
vector 14 DatabaseNetwork.user[14] AccessInterval ETV
vector 15 DatabaseNetwork.user[15] AccessInterval ETV
vector 16 DatabaseNetwork.user[16] AccessInterval ETV
vector 17 DatabaseNetwork.user[17] AccessInterval ETV
vector 18 DatabaseNetwork.user[18] AccessInterval ETV
vector 19 DatabaseNetwork.user[19] AccessInterval ETV
vector 20 DatabaseNetwork.user[20] AccessInterval ETV
vector 21 DatabaseNetwork.user[21] AccessInterval ETV
vector 22 DatabaseNetwork.user[22] AccessInterval ETV
vector 23 DatabaseNetwork.user[23] AccessInterval ETV
vector 24 DatabaseNetwork.user[24] AccessInterval ETV
vector 25 DatabaseNetwork.user[25] AccessInterval ETV
vector 26 DatabaseNetwork.user[26] AccessInterval ETV
vector 27 DatabaseNetwork.user[27] AccessInterval ETV
vector 28 DatabaseNetwork.user[28] AccessInterval ETV
vector 29 DatabaseNetwork.user[29] AccessInterval ETV
vector 30 DatabaseNetwork.user[30] AccessInterval ETV
vector 31 DatabaseNetwork.user[31] AccessInterval ETV
vector 32 DatabaseNetwork.user[32] AccessInterval ETV
vector 33 DatabaseNetwork.user[33] AccessInterval ETV
vector 34 DatabaseNetwork.user[34] AccessInterval ETV
vector 35 DatabaseNetwork.user[35] AccessInterval ETV
vector 36 DatabaseNetwork.user[36] AccessInterval ETV
vector 37 DatabaseNetwork.user[37] AccessInterval ETV
vector 38 DatabaseNetwork.user[38] AccessInterval ETV
vector 39 DatabaseNetwork.user[39] AccessInterval ETV
vector 40 DatabaseNetwork.user[40] AccessInterval ETV
vector 41 DatabaseNetwork.user[41] AccessInterval ETV
vector 42 DatabaseNetwork.user[42] AccessInterval ETV
vector 43 DatabaseNetwork.user[43] AccessInterval ETV
vector 44 DatabaseNetwork.user[44] AccessInterval ETV
vector 45 DatabaseNetwork.user[45] AccessInterval ETV
vector 46 DatabaseNetwork.user[46] AccessInterval ETV
vector 47 DatabaseNetwork.user[47] AccessInterval ETV
vector 48 DatabaseNetwork.user[48] AccessInterval ETV
vector 49 DatabaseNetwork.user[49] AccessInterval ETV
vector 50 DatabaseNetwork.user[11] ReadAccesses ETV
vector 51 DatabaseNetwork.user[11] WaitTime ETV
vector 52 DatabaseNetwork.user[32] ReadAccesses ETV
vector 53 DatabaseNetwork.user[32] WaitTime ETV
vector 54 DatabaseNetwork.user[20] WriteAccesses ETV
vector 55 DatabaseNetwork.user[20] WaitTime ETV
vector 56 DatabaseNetwork.user[13] WriteAccesses ETV
vector 57 DatabaseNetwork.user[13] WaitTime ETV
vector 58 DatabaseNetwork.user[16] ReadAccesses ETV
vector 59 DatabaseNetwork.user[16] WaitTime ETV
vector 60 DatabaseNetwork.user[1] ReadAccesses ETV
vector 61 DatabaseNetwork.user[1] WaitTime ETV
vector 62 DatabaseNetwork.user[17] ReadAccesses ETV
vector 63 DatabaseNetwork.user[17] WaitTime ETV
vector 64 DatabaseNetwork.user[5] ReadAccesses ETV
vector 65 DatabaseNetwork.user[12] ReadAccesses ETV
vector 66 DatabaseNetwork.user[5] WaitTime ETV
vector 67 DatabaseNetwork.user[12] WaitTime ETV
vector 68 DatabaseNetwork.user[21] ReadAccesses ETV
vector 69 DatabaseNetwork.user[21] WaitTime ETV
vector 70 DatabaseNetwork.user[46] ReadAccesses ETV
vector 71 DatabaseNetwork.user[46] WaitTime ETV
vector 72 DatabaseNetwork.user[20] ReadAccesses ETV
vector 73 DatabaseNetwork.user[14] ReadAccesses ETV
vector 74 DatabaseNetwork.user[14] WaitTime ETV
vector 75 DatabaseNetwork.user[25] ReadAccesses ETV
vector 76 DatabaseNetwork.user[25] WaitTime ETV
vector 77 DatabaseNetwork.user[15] ReadAccesses ETV
vector 78 DatabaseNetwork.user[15] WaitTime ETV
vector 79 DatabaseNetwork.user[36] ReadAccesses ETV
vector 80 DatabaseNetwork.user[36] WaitTime ETV
vector 81 DatabaseNetwork.user[45] ReadAccesses ETV
vector 82 DatabaseNetwork.user[26] ReadAccesses ETV
vector 83 DatabaseNetwork.user[45] WaitTime ETV
vector 84 DatabaseNetwork.user[26] WaitTime ETV
vector 85 DatabaseNetwork.user[40] ReadAccesses ETV
vector 86 DatabaseNetwork.user[40] WaitTime ETV
vector 87 DatabaseNetwork.user[4] WriteAccesses ETV
vector 88 DatabaseNetwork.user[4] WaitTime ETV
vector 89 DatabaseNetwork.user[41] ReadAccesses ETV
vector 90 DatabaseNetwork.user[41] WaitTime ETV
vector 91 DatabaseNetwork.user[27] ReadAccesses ETV
vector 92 DatabaseNetwork.user[27] WaitTime ETV
vector 93 DatabaseNetwork.user[37] ReadAccesses ETV
vector 94 DatabaseNetwork.user[37] WaitTime ETV
vector 95 DatabaseNetwork.user[38] ReadAccesses ETV
vector 96 DatabaseNetwork.user[38] WaitTime ETV
vector 97 DatabaseNetwork.user[9] ReadAccesses ETV
vector 98 DatabaseNetwork.user[9] WaitTime ETV
vector 99 DatabaseNetwork.user[44] ReadAccesses ETV
vector 100 DatabaseNetwork.user[18] ReadAccesses ETV
vector 101 DatabaseNetwork.user[44] WaitTime ETV
vector 102 DatabaseNetwork.user[18] WaitTime ETV
vector 103 DatabaseNetwork.user[23] ReadAccesses ETV
vector 104 DatabaseNetwork.user[47] WriteAccesses ETV
vector 105 DatabaseNetwork.user[23] WaitTime ETV
vector 106 DatabaseNetwork.user[22] ReadAccesses ETV
vector 107 DatabaseNetwork.user[22] WaitTime ETV
vector 108 DatabaseNetwork.user[47] WaitTime ETV
vector 109 DatabaseNetwork.user[46] WriteAccesses ETV
vector 110 DatabaseNetwork.user[29] ReadAccesses ETV
vector 111 DatabaseNetwork.user[29] WaitTime ETV
vector 112 DatabaseNetwork.user[6] ReadAccesses ETV
vector 113 DatabaseNetwork.user[6] WaitTime ETV
vector 114 DatabaseNetwork.user[4] ReadAccesses ETV
vector 115 DatabaseNetwork.user[37] WriteAccesses ETV
vector 116 DatabaseNetwork.user[48] ReadAccesses ETV
vector 117 DatabaseNetwork.user[48] WaitTime ETV
vector 118 DatabaseNetwork.user[0] WriteAccesses ETV
vector 119 DatabaseNetwork.user[39] ReadAccesses ETV
vector 120 DatabaseNetwork.user[0] WaitTime ETV
vector 121 DatabaseNetwork.user[39] WaitTime ETV
vector 122 DatabaseNetwork.user[34] ReadAccesses ETV
vector 123 DatabaseNetwork.user[34] WaitTime ETV
vector 124 DatabaseNetwork.user[7] ReadAccesses ETV
vector 125 DatabaseNetwork.user[7] WaitTime ETV
vector 126 DatabaseNetwork.user[43] ReadAccesses ETV
vector 127 DatabaseNetwork.user[43] WaitTime ETV
vector 128 DatabaseNetwork.user[30] ReadAccesses ETV
vector 129 DatabaseNetwork.user[30] WaitTime ETV
vector 130 DatabaseNetwork.user[17] WriteAccesses ETV
vector 131 DatabaseNetwork.user[24] WriteAccesses ETV
vector 132 DatabaseNetwork.user[24] WaitTime ETV
vector 133 DatabaseNetwork.user[28] WriteAccesses ETV
vector 134 DatabaseNetwork.user[28] WaitTime ETV
vector 135 DatabaseNetwork.user[27] WriteAccesses ETV
vector 136 DatabaseNetwork.user[42] WriteAccesses ETV
vector 137 DatabaseNetwork.user[42] WaitTime ETV
vector 138 DatabaseNetwork.user[19] ReadAccesses ETV
vector 139 DatabaseNetwork.user[19] WaitTime ETV
vector 140 DatabaseNetwork.user[7] WriteAccesses ETV
vector 141 DatabaseNetwork.user[2] ReadAccesses ETV
vector 142 DatabaseNetwork.user[2] WaitTime ETV
vector 143 DatabaseNetwork.user[16] WriteAccesses ETV
vector 144 DatabaseNetwork.user[49] WriteAccesses ETV
vector 145 DatabaseNetwork.user[49] WaitTime ETV
vector 146 DatabaseNetwork.user[33] ReadAccesses ETV
vector 147 DatabaseNetwork.user[33] WaitTime ETV
vector 148 DatabaseNetwork.user[40] WriteAccesses ETV
vector 149 DatabaseNetwork.user[48] WriteAccesses ETV
vector 150 DatabaseNetwork.user[13] ReadAccesses ETV
vector 151 DatabaseNetwork.user[3] ReadAccesses ETV
vector 152 DatabaseNetwork.user[3] WaitTime ETV
vector 153 DatabaseNetwork.user[41] WriteAccesses ETV
vector 154 DatabaseNetwork.user[49] ReadAccesses ETV
vector 155 DatabaseNetwork.user[14] WriteAccesses ETV
vector 156 DatabaseNetwork.user[0] ReadAccesses ETV
vector 157 DatabaseNetwork.user[8] ReadAccesses ETV
vector 158 DatabaseNetwork.user[8] WaitTime ETV
vector 159 DatabaseNetwork.user[10] WriteAccesses ETV
vector 160 DatabaseNetwork.user[10] WaitTime ETV
vector 161 DatabaseNetwork.user[31] ReadAccesses ETV
vector 162 DatabaseNetwork.user[31] WaitTime ETV
vector 163 DatabaseNetwork.user[45] WriteAccesses ETV
vector 164 DatabaseNetwork.user[30] WriteAccesses ETV
vector 165 DatabaseNetwork.user[6] WriteAccesses ETV
vector 166 DatabaseNetwork.user[28] ReadAccesses ETV
vector 167 DatabaseNetwork.user[5] WriteAccesses ETV
vector 168 DatabaseNetwork.user[43] WriteAccesses ETV
vector 169 DatabaseNetwork.user[24] ReadAccesses ETV
vector 170 DatabaseNetwork.user[10] ReadAccesses ETV
vector 171 DatabaseNetwork.user[35] WriteAccesses ETV
vector 172 DatabaseNetwork.user[35] WaitTime ETV
vector 173 DatabaseNetwork.user[42] ReadAccesses ETV
vector 174 DatabaseNetwork.user[39] WriteAccesses ETV
vector 175 DatabaseNetwork.user[35] ReadAccesses ETV
vector 176 DatabaseNetwork.user[25] WriteAccesses ETV
vector 177 DatabaseNetwork.user[19] WriteAccesses ETV
vector 178 DatabaseNetwork.user[44] WriteAccesses ETV
vector 179 DatabaseNetwork.user[38] WriteAccesses ETV
vector 180 DatabaseNetwork.user[23] WriteAccesses ETV
vector 181 DatabaseNetwork.user[9] WriteAccesses ETV
vector 182 DatabaseNetwork.user[29] WriteAccesses ETV
vector 183 DatabaseNetwork.user[36] WriteAccesses ETV
vector 184 DatabaseNetwork.user[47] ReadAccesses ETV
vector 185 DatabaseNetwork.user[1] WriteAccesses ETV
vector 186 DatabaseNetwork.user[2] WriteAccesses ETV
vector 187 DatabaseNetwork.user[21] WriteAccesses ETV
vector 188 DatabaseNetwork.user[15] WriteAccesses ETV
vector 189 DatabaseNetwork.user[32] WriteAccesses ETV
vector 190 DatabaseNetwork.user[31] WriteAccesses ETV
vector 191 DatabaseNetwork.user[3] WriteAccesses ETV
vector 192 DatabaseNetwork.user[11] WriteAccesses ETV
vector 193 DatabaseNetwork.user[34] WriteAccesses ETV
vector 194 DatabaseNetwork.user[8] WriteAccesses ETV
vector 195 DatabaseNetwork.user[33] WriteAccesses ETV
vector 196 DatabaseNetwork.user[26] WriteAccesses ETV
vector 197 DatabaseNetwork.user[12] WriteAccesses ETV
vector 198 DatabaseNetwork.user[22] WriteAccesses ETV
vector 199 DatabaseNetwork.user[18] WriteAccesses ETV
0	0	0	16.005647817852
0	165	16.005647817852	7.0880321358979
0	261	23.09367995375	19.531625167331
0	465	42.625305121081	38.844879745629
0	853	81.47018486671	20.198708517029
0	1023	101.668893383739	45.989911007286
0	1477	147.658804391025	41.600585380125
0	1921	189.25938977115	9.0984272332457
0	2017	198.357817004396	3.2224588675525
0	2033	201.580275871948	58.11272433403
0	2641	259.693000205978	5.3947075106886
0	2673	265.087707716667	19.362634572621
0	2851	284.450342289288	2.0206480128867
0	2881	286.470990302175	19.261389249627
0	3089	305.732379551802	13.833604359163
0	3257	319.565983910965	1.2472685426765
0	3273	320.813252453642	16.904082840331
0	3479	337.717335293973	3.2379017115178
0	3493	340.955237005491	3.2943119583213
0	3525	344.249548963812	0.37012252104925
0	3529	344.619671484861	3.0547534294943
0	3573	347.674424914355	41.265670378426
0	3981	388.940095292781	25.348616421356
0	4203	414.288711714137	33.047212723141
0	4537	447.335924437278	40.074702777184
0	4961	487.410627214462	5.2744688821283
0	5021	492.68509609659	13.863252766117
0	5143	506.548348862707	60.209635979845
0	5675	566.757984842552	4.115975722806
0	5721	570.873960565358	69.955302567607
0	6375	640.829263132965	2.0596515130989
0	6407	642.888914646064	7.8728353802688
0	6491	650.761750026333	24.694841855882
0	6709	675.456591882215	9.4715432358452
0	6797	684.92813511806	30.022728256628
0	7119	714.950863374688	13.848865824109
0	7265	728.799729198797	16.323616385328
0	7425	745.123345584125	60.393130258695
0	7953	805.51647584282	25.474923015766
0	8233	830.991398858586	4.7955449657964
0	8301	835.786943824382	6.2757305457095
0	8361	842.062674370092	25.360245255434
0	8621	867.422919625526	65.411020473857
0	9209	932.833940099383	0.030199773332056
0	9215	932.864139872715	15.542925580228
0	9369	948.407065452943	54.969142308699
0	9953	1003.376207761642	9.2978925295926
0	10049	1012.674100291235	80.393480360598
0	10805	1093.067580651833	22.410958740197
0	11051	1115.47853939203	3.0811952431652
0	11085	1118.559734635195	14.331911178944
0	11229	1132.891645814139	23.458473921656
0	11461	1156.350119735795	0.70314030154112
0	11473	1157.053260037336	1.5289665540782
0	11489	1158.582226591414	12.512775473867
0	11601	1171.095002065281	13.672123173341
0	11717	1184.767125238622	1.8476722740371
0	11751	1186.614797512659	10.956587173464
0	11865	1197.571384686123	11.963256243504
0	12001	1209.534640929627	3.367543324619
0	12041	1212.902184254246	0.007479047717128
0	12043	1212.909663301963	3.1755339274052
0	12093	1216.085197229368	30.46995406749
0	12373	1246.555151296858	36.28822598176
0	12735	1282.843377278618	12.30817110867
0	12849	1295.151548387288	42.957665142163
0	13233	1338.109213529451	0.485771625576
0	13241	1338.594985155027	11.426314383163
0	13355	1350.02129953819	4.0709510037023
0	13395	1354.092250541892	53.066646581972
0	13901	1407.158897123864	20.229980792152
0	14149	1427.388877916016	9.7623002028389
0	14253	1437.151178118855	39.598521708775
0	14649	1476.74969982763	9.5120020340372
0	14763	1486.261701861667	7.2775037447474
0	14817	1493.539205606414	85.889369648464
0	15665	1579.428575254878	56.206208934515
0	16133	1635.634784189393	18.751414797013
0	16329	1654.386198986406	3.5475072671433
0	16381	1657.933706253549	42.491469304969
0	16689	1700.425175558518	8.6871669704905
0	16801	1709.112342529009	38.492659466285
0	17205	1747.605001995294	19.327020214229
0	17423	1766.932022209523	34.485333115496
0	17781	1801.417355325019	41.186282189597
0	18183	1842.603637514616	2.5749098075924
0	18211	1845.178547322208	27.05981764457
0	18477	1872.238364966778	57.12022810907
0	19105	1929.358593075848	30.960613150276
0	19433	1960.319206226124	12.698602581317
0	19597	1973.017808807441	52.59868792402
0	20161	2025.616496731461	30.994512988567
0	20503	2056.611009720028	8.9979655122057
0	20609	2065.608975232234	0.30155029722807
0	20615	2065.910525529462	3.5749871434945
0	20657	2069.485512672957	0.39049176638957
0	20667	2069.876004439347	28.366434018722
0	20977	2098.242438458069	21.435695983309
0	21187	2119.678134441378	24.999632302281
0	21503	2144.677766743659	76.457045820207
0	22265	2221.134812563866	99.015938826048
0	23231	2320.150751389914	1.42211226137
0	23241	2321.572863651284	46.3347073027
0	23655	2367.907570953984	22.309993820363
0	23881	2390.217564774347	47.27051028211
0	24397	2437.488075056457	1.310970268035
0	24409	2438.799045324492	13.040442277816
0	24525	2451.839487602308	6.5960113130994
0	24585	2458.435498915407	14.656035491217
0	24737	2473.091534406624	6.3935600587527
0	24815	2479.485094465377	2.4333899569163
0	24853	2481.918484422293	18.525644491611
0	25045	2500.444128913904	49.739003779137
0	25549	2550.183132693041	35.131912479692
0	25901	2585.315045172733	4.3413504346539
0	25943	2589.656395607387	9.206377547285
0	26015	2598.862773154672	5.5064029450975
0	26073	2604.36917609977	11.649558924437
0	26209	2616.018735024207	35.652347546473
0	26563	2651.67108257068	2.6147212094695
0	26589	2654.28580378015	26.389050152638
0	26847	2680.674853932788	60.498702568644
0	27453	2741.173556501432	3.8320890468766
0	27477	2745.005645548309	1.0825891428689
0	27489	2746.088234691178	10.576080083633
0	27577	2756.664314774811	1.2022241938527
0	27601	2757.866538968664	5.8550610102382
0	27673	2763.721599978902	0.42795508359158
0	27685	2764.149555062494	5.0537810990307
0	27737	2769.203336161525	22.048927611092
0	27929	2791.252263772617	72.570751261353
0	28581	2863.82301503397	11.865341980581
0	28721	2875.688357014551	11.064795768113
0	28853	2886.753152782664	0.015340764746038
0	28855	2886.76849354741	17.207037496222
0	29041	2903.975531043632	10.896788095533
0	29143	2914.872319139165	9.8049916392111
0	29243	2924.677310778376	7.7335123033961
0	29341	2932.410823081772	0.075100217404428
0	29343	2932.485923299176	31.300072638657
0	29625	2963.785995937833	6.1924263854948
0	29689	2969.978422323328	8.3709104862408
0	29793	2978.349332809569	55.097476077181
0	30365	3033.44680888675	38.90897001553
0	30783	3072.35577890228	0.38212867596884
0	30789	3072.737907578249	4.1975337370796
0	30837	3076.935441315329	6.625427686267
0	30893	3083.560869001596	13.343472654369
0	31077	3096.904341655965	1.4466317279305
0	31089	3098.350973383896	4.83379240537
0	31149	3103.184765789266	12.077899061731
0	31257	3115.262664850997	22.588308376266
0	31489	3137.850973227263	0.090850701081729
0	31491	3137.941823928345	24.75667791086
0	31749	3162.698501839205	15.759676037918
0	31931	3178.458177877123	6.6293252514292
0	32003	3185.087503128552	11.768681479051
0	32137	3196.856184607603	11.877251283047
0	32241	3208.73343589065	15.180451697199
0	32373	3223.913887587849	6.4180242058987
0	32455	3230.331911793748	15.834354297387
0	32637	3246.166266091135	48.729427458104
0	33065	3294.895693549239	20.301861628671
0	33269	3315.19755517791	1.1440362997794
0	33293	3316.341591477689	4.3835091683659
0	33333	3320.725100646055	107.86808543583
0	34381	3428.593186081886	11.899566934785
0	34501	3440.492753016671	32.762593824543
0	34773	3473.255346841214	7.269519382662
0	34859	3480.524866223876	2.5404024776352
0	34887	3483.065268701511	10.731983035522
0	34989	3493.797251737033	31.985799521206
0	35325	3525.783051258239	0.88554610367029
0	35333	3526.668597361909	2.0124615743886
0	35381	3528.681058936298	3.9182527670083
0	35417	3532.599311703306	12.42264342006
0	35533	3545.021955123366	4.5373442433321
0	35577	3549.559299366698	24.191082118444
0	35737	3573.750381485142	18.188746549803
0	35921	3591.939128034945	12.686354561589
0	36053	3604.625482596534	19.00604259438
0	36229	3623.631525190914	7.0854571350825
0	36301	3630.716982325996	7.5898985241995
0	36405	3638.306880850196	38.861263309185
0	36773	3677.168144159381	8.9172322984123
0	36855	3686.085376457793	18.549953554092
0	37037	3704.635330011885	7.7436931068017
0	37125	3712.379023118687	14.253636089759
0	37233	3726.632659208446	3.2525121479239
0	37261	3729.88517135637	33.899898605506
0	37639	3763.785069961876	37.047406134428
0	37969	3800.832476096304	10.724159164643
0	38091	3811.556635260947	7.0492274471444
0	38161	3818.605862708091	3.4125697226971
0	38219	3822.018432430788	0.95117824457524
0	38233	3822.969610675363	8.2677028334413
0	38265	3831.237313508804	4.6338623755571
0	38319	3835.871175884361	5.6897673320063
0	38371	3841.560943216367	29.92453060071
0	38673	3871.485473817077	2.8429214145291
0	38689	3874.328395231606	5.823203791636
0	38727	3880.151599023242	8.1809634657312
0	38841	3888.332562488973	5.9727955080397
0	38917	3894.305357997013	47.194190088828
0	39385	3941.499548085841	10.632795465464
0	39497	3952.132343551305	39.944684802154
0	39813	3992.077028353459	19.425488347956
0	40005	4011.502516701415	8.9772944329442
0	40081	4020.479811134359	5.079634797631
0	40141	4025.55944593199	61.149652497536
0	40789	4086.709098429526	12.215581986546
0	40935	4098.924680416072	3.7855895237759
0	40977	4102.710269939848	30.087295810979
0	41277	4132.797565750827	65.50127247442
0	41895	4198.298838225247	18.665746303745
0	42083	4216.964584528992	22.81848353889
0	42325	4239.783068067882	21.60608312999
0	42491	4261.389151197872	7.0832943613788
0	42545	4268.472445559251	27.211078776703
0	42811	4295.683524335954	2.8000071108426
0	42839	4298.483531446797	2.8806440825607
0	42869	4301.364175529358	2.9567290487142
0	42893	4304.320904578072	44.305705842309
0	43361	4348.626610420381	3.0897782121729
0	43401	4351.716388632554	1.0582050067966
0	43409	4352.774593639351	15.928790324558
0	43573	4368.703383963909	7.7518937346496
0	43645	4376.455277698559	67.695258532986
0	44383	4444.150536231545	0.58146171171303
0	44393	4444.731997943258	2.0603378640203
0	44405	4446.792335807278	4.0837652147196
0	44463	4450.876101021998	9.7449496939781
0	44567	4460.621050715976	55.409297258419
0	45069	4516.030347974395	5.1859638139501
0	45109	4521.216311788345	22.896216167091
0	45333	4544.112527955436	9.5217847206832
0	45441	4553.634312676119	41.171657743082
0	45785	4594.805970419201	13.580079781753
0	45877	4608.386050200954	4.6857227655701
0	45929	4613.071772966524	15.994996701543
0	46049	4629.066769668067	10.345060986839
0	46145	4639.411830654906	14.646003125945
0	46317	4654.057833780851	2.2870563174487
0	46349	4656.3448900983	13.780591746397
0	46485	4670.125481844697	0.062590359150291
0	46487	4670.188072203847	16.827349500039
0	46669	4687.015421703886	23.356037930413
0	46881	4710.371459634299	1.6884834081283
0	46893	4712.059943042427	13.566367799964
0	47021	4725.626310842391	32.407426606972
0	47369	4758.033737449363	49.169674489219
0	47851	4807.203411938582	30.891474703087
0	48101	4838.094886641669	2.6676292239276
0	48121	4840.762515865597	37.915473440009
0	48505	4878.677989305606	10.752153965121
0	48597	4889.430143270727	4.4190524589297
0	48661	4893.849195729657	11.113901012349
0	48753	4904.963096742006	1.0245736370789
0	48769	4905.987670379085	2.6091182558001
0	48801	4908.596788634885	44.996753887507
0	49241	4953.593542522392	1.0752620829928
0	49265	4954.668804605385	36.302974014063
0	49751	4990.971778619448	11.477182341632
0	49871	5002.44896096108	5.0044431679268
0	49929	5007.453404129007	4.0078911601062
0	49961	5011.461295289113	2.2570733545853
0	49995	5013.718368643698	20.374506854246
0	50237	5034.092875497944	46.831127158472
0	50669	5080.924002656416	12.126797951673
0	50821	5093.050800608089	9.9159785649891
0	50929	5102.966779173078	31.890067017597
0	51269	5134.856846190675	4.6634075452329
0	51317	5139.520253735908	53.396279874162
0	51869	5192.91653361007	11.853782169808
0	51997	5204.770315779878	23.070669335056
0	52177	5227.840985114934	7.8422054160239
0	52249	5235.683190530958	8.6151560687567
0	52341	5244.298346599715	30.859743734783
0	52597	5275.158090334498	15.616755669136
0	52765	5290.774846003634	28.734619230106
0	53091	5319.50946523374	26.837384330148
0	53333	5346.346849563888	25.109056393115
0	53573	5371.455905957003	19.144763358589
0	53815	5390.600669315592	1.8092502494628
0	53837	5392.409919565055	10.535658101795
0	53917	5402.94557766685	3.8069844252877
0	53957	5406.752562092138	37.904337128822
0	54289	5444.65689922096	3.8552985927997
0	54333	5448.51219781376	8.4555820458321
0	54427	5456.967779859592	0.077076046960557
0	54429	5457.044855906553	25.089903899311
0	54627	5482.134759805864	24.399879996491
0	54841	5506.534639802355	21.432044745225
0	55065	5527.96668454758	9.1639301802323
0	55155	5537.130614727812	1.4555675925279
0	55169	5538.58618232034	17.79774269099
0	55331	5556.38392501133	15.293852595156
0	55525	5571.677777606486	5.9365330940658
0	55589	5577.614310700552	14.687118089263
0	55679	5592.301428789815	9.4905965658235
0	55813	5601.792025355639	6.2986545263197
0	55869	5608.090679881959	1.7082923027327
0	55905	5609.798972184692	3.4504653916705
0	55953	5613.249437576362	53.56876735949
0	56501	5666.818204935852	5.7187364699327
0	56569	5672.536941405785	19.349095873599
0	56761	5691.886037279384	77.187260027126
0	57517	5769.07329730651	23.794097762616
0	57729	5792.867395069126	1.4073295111634
0	57745	5794.274724580289	13.941760786169
0	57885	5808.216485366458	12.811732230265
0	58047	5821.028217596723	13.08444412925
0	58193	5834.112661725973	1.2330789531116
0	58213	5835.345740679085	44.296100211361
0	58629	5879.641840890446	11.002279203569
0	58717	5890.644120094015	0.77409293961062
0	58737	5891.418213033626	22.803028905616
0	58945	5914.221241939242	2.4898079375758
0	58977	5916.711049876818	9.3077845645293
0	59045	5926.018834441347	28.044940819526
0	59257	5954.063775260873	10.809408836726
0	59405	5964.873184097599	14.589905926577
0	59559	5979.463090024176	28.46202388474
0	59825	6007.925113908916	26.541065828929
0	60047	6034.466179737845	12.314095867116
0	60181	6046.780275604961	26.316195966895
0	60485	6073.096471571856	12.046809894594
0	60597	6085.14328146645	31.301439732898
0	60921	6116.444721199348	11.499763008803
0	61061	6127.944484208151	19.876705092115
0	61265	6147.821189300266	5.1359291660925
0	61333	6152.957118466358	1.9401799870615
0	61345	6154.897298453419	1.7664699086044
0	61379	6156.663768362023	54.054601307195
0	61833	6210.718369669218	5.2043827213606
0	61919	6215.922752390579	14.847058953569
0	62073	6230.769811344148	50.622326650099
0	62541	6281.392137994247	38.960290403799
0	62901	6320.352428398046	2.7407728592182
0	62919	6323.093201257264	7.9144092209479
0	63007	6331.007610478212	26.625329669823
0	63253	6357.632940148035	3.9649001446464
0	63293	6361.597840292681	56.940312131843
0	63873	6418.538152424524	1.6272086727654
0	63897	6420.165361097289	33.486123472757
0	64177	6453.651484570046	31.131320412875
0	64451	6484.782804982921	26.766384169201
0	64751	6511.549189152122	2.2904834072103
0	64777	6513.839672559332	27.552521928485
0	65005	6541.392194487817	4.4482322036139
0	65053	6545.840426691431	21.754635269822
0	65293	6567.595061961253	4.8862609867355
0	65333	6572.481322947988	2.3028594379939
0	65349	6574.784182385982	5.4032691496794
0	65385	6580.187451535661	4.0968545283015
0	65433	6584.284306063963	4.1593251251844
0	65489	6588.443631189147	40.013314932063
0	65933	6628.45694612121	11.261899926197
0	66039	6639.718846047407	22.611237380857
0	66281	6662.330083428264	20.698445372564
0	66493	6683.028528800828	19.833364598293
0	66735	6702.861893399121	10.809460729351
0	66885	6713.671354128472	101.83374532401
0	67763	6815.505099452481	0.75633364041776
0	67777	6816.261433092899	31.001978233318
0	68117	6847.263411326217	6.0243614413545
0	68189	6853.287772767571	9.389844555138
0	68293	6862.677617322709	0.27649960365481
0	68305	6862.954116926364	14.660712877045
0	68449	6877.614829803409	15.093312362355
0	68585	6892.708142165764	25.230351119476
0	68861	6917.93849328524	10.001730538958
0	68969	6927.940223824198	9.4910827196247
0	69089	6937.431306543823	6.4748388089555
0	69153	6943.906145352778	56.365069999035
0	69831	7000.271215351813	15.103635448397
0	69983	7015.37485080021	12.34259691374
0	70107	7027.71744771395	1.9701273181832
0	70141	7029.687575032133	28.386338764035
0	70433	7058.073913796168	8.8015024665467
0	70527	7066.875416262715	13.566273359346
0	70661	7080.441689622061	3.4281213483412
0	70685	7083.869810970402	1.5784767093533
0	70707	7085.448287679755	22.942752851834
0	70881	7108.391040531589	17.595494034316
0	71021	7125.986534565905	15.303450325483
0	71165	7141.289984891388	6.3107510806294
0	71237	7147.600735972017	7.824475405991
0	71297	7155.425211378008	40.62520005993
0	71637	7196.050411437938	2.7955069281746
0	71663	7198.845918366113	48.456425654022
0	72249	7247.302344020135	3.2121304742616
0	72285	7250.514474494397	2.7753538974951
0	72317	7253.289828391892	15.569023513638
0	72427	7268.85885190553	4.5377095711666
0	72485	7273.396561476697	34.012981869762
0	72879	7307.409543346459	6.8426674762037
0	72943	7314.252210822663	1.8092838165493
0	72961	7316.061494639212	11.774297795641
0	73061	7327.835792434853	38.697641185448
0	73345	7366.533433620301	15.232989680842
0	73453	7381.766423301143	37.220902694962
0	73797	7418.987325996105	44.81993355381
0	74253	7463.807259549915	16.186267164442
0	74399	7479.993526714357	61.431515050682
0	74981	7541.425041765039	45.608791165725
0	75413	7587.033832930764	36.643281575388
0	75877	7623.677114506152	28.521222899327
0	76153	7652.198337405479	11.64761768457
0	76241	7663.845955090049	52.235164815693
0	76773	7716.081119905742	13.541604363568
0	76935	7729.622724269311	18.420413212657
0	77125	7748.043137481968	9.6863010311306
0	77213	7757.729438513099	18.942833726792
0	77385	7776.672272239891	39.462823535879
0	77779	7816.13509577577	63.896578263925
0	78397	7880.031674039695	10.956100831258
0	78493	7890.987774870953	1.3435282518962
0	78505	7892.331303122849	3.2631213696709
0	78525	7895.59442449252	15.658120146995
0	78699	7911.252544639515	6.309911110175
0	78765	7917.56245574969	1.1558981160406
0	78781	7918.718353865731	39.518578087998
0	79145	7958.236931953729	20.36939758
0	79273	7978.606329533729	20.743160092097
0	79465	7999.349489625826	4.1105248437542
0	79517	8003.46001446958	123.11526786441
0	80733	8126.575282333992	19.425352204691
0	80935	8146.000634538683	18.089976549054
0	81133	8164.090611087737	13.086468020908
0	81277	8177.177079108645	12.816016282105
0	81385	8189.99309539075	20.495858972417
0	81629	8210.488954363167	17.726609490804
0	81813	8228.215563853971	1.3345940632689
0	81833	8229.55015791724	20.322483673616
0	82005	8249.872641590856	23.16655380207
0	82271	8273.039195392926	23.511327069921
0	82509	8296.550522462847	75.735440011925
0	83309	8372.285962474772	52.254776383457
0	83911	8424.540738858229	20.963081996448
0	84125	8445.503820854677	15.124821256947
0	84307	8460.628642111624	9.9151684196961