file 2923260 1767629712                                         
version 3
run Lognormal-7-20260105-17:15:12-28123
attr configname Lognormal
attr datetime 20260105-17:15:12
attr datetimef 20260105-171512
attr experiment Lognormal
attr inifile omnetpp.ini
attr iterationvars "$N=50, $p=0.5"
attr iterationvarsd N=50/p=0.5
attr iterationvarsf N=50,p=0.5-
attr measurement "$N=50, $p=0.5"
attr network progetto.DatabaseNetwork
attr processid 28123
attr repetition 2
attr replication #2
attr resultdir results
attr runnumber 7
attr seedset 2
itervar N 50
itervar p 0.5
config description "Lognormal distribution (hotspots) - varia N e p"
config *.user[*].tableDistribution "\"lognormal\""
config *.user[*].lognormalM 1.5
config *.user[*].lognormalS 1.0
config *.numUsers 50
config *.user[*].readProbability 0.5
config network progetto.DatabaseNetwork
config sim-time-limit 10000s
config cpu-time-limit 3600s
config repeat 5
config seed-set 2
config output-vector-file "results/Lognormal-$N=50, $p=0.5-2.vec"
config output-scalar-file "results/Lognormal-$N=50, $p=0.5-2.sca"
config result-dir results
config **.vector-recording true
config **.scalar-recording true
config *.numTables 20
config *.user[*].lambda 0.05
config *.user[*].serviceTime 0.1s

vector 0 DatabaseNetwork.user[0] AccessInterval ETV
vector 1 DatabaseNetwork.user[1] AccessInterval ETV
vector 2 DatabaseNetwork.user[2] AccessInterval ETV
vector 3 DatabaseNetwork.user[3] AccessInterval ETV
vector 4 DatabaseNetwork.user[4] AccessInterval ETV
vector 5 DatabaseNetwork.user[5] AccessInterval ETV
vector 6 DatabaseNetwork.user[6] AccessInterval ETV
vector 7 DatabaseNetwork.user[7] AccessInterval ETV
vector 8 DatabaseNetwork.user[8] AccessInterval ETV
vector 9 DatabaseNetwork.user[9] AccessInterval ETV
vector 10 DatabaseNetwork.user[10] AccessInterval ETV
vector 11 DatabaseNetwork.user[11] AccessInterval ETV
vector 12 DatabaseNetwork.user[12] AccessInterval ETV
vector 13 DatabaseNetwork.user[13] AccessInterval ETV
vector 14 DatabaseNetwork.user[14] AccessInterval ETV
vector 15 DatabaseNetwork.user[15] AccessInterval ETV
vector 16 DatabaseNetwork.user[16] AccessInterval ETV
vector 17 DatabaseNetwork.user[17] AccessInterval ETV
vector 18 DatabaseNetwork.user[18] AccessInterval ETV
vector 19 DatabaseNetwork.user[19] AccessInterval ETV
vector 20 DatabaseNetwork.user[20] AccessInterval ETV
vector 21 DatabaseNetwork.user[21] AccessInterval ETV
vector 22 DatabaseNetwork.user[22] AccessInterval ETV
vector 23 DatabaseNetwork.user[23] AccessInterval ETV
vector 24 DatabaseNetwork.user[24] AccessInterval ETV
vector 25 DatabaseNetwork.user[25] AccessInterval ETV
vector 26 DatabaseNetwork.user[26] AccessInterval ETV
vector 27 DatabaseNetwork.user[27] AccessInterval ETV
vector 28 DatabaseNetwork.user[28] AccessInterval ETV
vector 29 DatabaseNetwork.user[29] AccessInterval ETV
vector 30 DatabaseNetwork.user[30] AccessInterval ETV
vector 31 DatabaseNetwork.user[31] AccessInterval ETV
vector 32 DatabaseNetwork.user[32] AccessInterval ETV
vector 33 DatabaseNetwork.user[33] AccessInterval ETV
vector 34 DatabaseNetwork.user[34] AccessInterval ETV
vector 35 DatabaseNetwork.user[35] AccessInterval ETV
vector 36 DatabaseNetwork.user[36] AccessInterval ETV
vector 37 DatabaseNetwork.user[37] AccessInterval ETV
vector 38 DatabaseNetwork.user[38] AccessInterval ETV
vector 39 DatabaseNetwork.user[39] AccessInterval ETV
vector 40 DatabaseNetwork.user[40] AccessInterval ETV
vector 41 DatabaseNetwork.user[41] AccessInterval ETV
vector 42 DatabaseNetwork.user[42] AccessInterval ETV
vector 43 DatabaseNetwork.user[43] AccessInterval ETV
vector 44 DatabaseNetwork.user[44] AccessInterval ETV
vector 45 DatabaseNetwork.user[45] AccessInterval ETV
vector 46 DatabaseNetwork.user[46] AccessInterval ETV
vector 47 DatabaseNetwork.user[47] AccessInterval ETV
vector 48 DatabaseNetwork.user[48] AccessInterval ETV
vector 49 DatabaseNetwork.user[49] AccessInterval ETV
vector 50 DatabaseNetwork.user[2] ReadAccesses ETV
vector 51 DatabaseNetwork.user[2] WaitTime ETV
vector 52 DatabaseNetwork.user[42] ReadAccesses ETV
vector 53 DatabaseNetwork.user[42] WaitTime ETV
vector 54 DatabaseNetwork.user[38] ReadAccesses ETV
vector 55 DatabaseNetwork.user[38] WaitTime ETV
vector 56 DatabaseNetwork.user[46] WriteAccesses ETV
vector 57 DatabaseNetwork.user[46] WaitTime ETV
vector 58 DatabaseNetwork.user[45] WriteAccesses ETV
vector 59 DatabaseNetwork.user[15] WriteAccesses ETV
vector 60 DatabaseNetwork.user[45] WaitTime ETV
vector 61 DatabaseNetwork.user[15] WaitTime ETV
vector 62 DatabaseNetwork.user[48] ReadAccesses ETV
vector 63 DatabaseNetwork.user[48] WaitTime ETV
vector 64 DatabaseNetwork.user[24] WriteAccesses ETV
vector 65 DatabaseNetwork.user[24] WaitTime ETV
vector 66 DatabaseNetwork.user[11] WriteAccesses ETV
vector 67 DatabaseNetwork.user[11] WaitTime ETV
vector 68 DatabaseNetwork.user[37] WriteAccesses ETV
vector 69 DatabaseNetwork.user[37] WaitTime ETV
vector 70 DatabaseNetwork.user[47] ReadAccesses ETV
vector 71 DatabaseNetwork.user[28] WriteAccesses ETV
vector 72 DatabaseNetwork.user[1] WriteAccesses ETV
vector 73 DatabaseNetwork.user[47] WaitTime ETV
vector 74 DatabaseNetwork.user[28] WaitTime ETV
vector 75 DatabaseNetwork.user[1] WaitTime ETV
vector 76 DatabaseNetwork.user[12] ReadAccesses ETV
vector 77 DatabaseNetwork.user[12] WaitTime ETV
vector 78 DatabaseNetwork.user[31] WriteAccesses ETV
vector 79 DatabaseNetwork.user[31] WaitTime ETV
vector 80 DatabaseNetwork.user[18] WriteAccesses ETV
vector 81 DatabaseNetwork.user[18] WaitTime ETV
vector 82 DatabaseNetwork.user[43] WriteAccesses ETV
vector 83 DatabaseNetwork.user[43] WaitTime ETV
vector 84 DatabaseNetwork.user[41] ReadAccesses ETV
vector 85 DatabaseNetwork.user[16] ReadAccesses ETV
vector 86 DatabaseNetwork.user[41] WaitTime ETV
vector 87 DatabaseNetwork.user[16] WaitTime ETV
vector 88 DatabaseNetwork.user[9] WriteAccesses ETV
vector 89 DatabaseNetwork.user[9] WaitTime ETV
vector 90 DatabaseNetwork.user[10] WriteAccesses ETV
vector 91 DatabaseNetwork.user[10] WaitTime ETV
vector 92 DatabaseNetwork.user[37] ReadAccesses ETV
vector 93 DatabaseNetwork.user[35] WriteAccesses ETV
vector 94 DatabaseNetwork.user[28] ReadAccesses ETV
vector 95 DatabaseNetwork.user[2] WriteAccesses ETV
vector 96 DatabaseNetwork.user[35] WaitTime ETV
vector 97 DatabaseNetwork.user[38] WriteAccesses ETV
vector 98 DatabaseNetwork.user[8] WriteAccesses ETV
vector 99 DatabaseNetwork.user[8] WaitTime ETV
vector 100 DatabaseNetwork.user[44] ReadAccesses ETV
vector 101 DatabaseNetwork.user[44] WaitTime ETV
vector 102 DatabaseNetwork.user[6] ReadAccesses ETV
vector 103 DatabaseNetwork.user[0] WriteAccesses ETV
vector 104 DatabaseNetwork.user[6] WaitTime ETV
vector 105 DatabaseNetwork.user[0] WaitTime ETV
vector 106 DatabaseNetwork.user[7] WriteAccesses ETV
vector 107 DatabaseNetwork.user[17] ReadAccesses ETV
vector 108 DatabaseNetwork.user[7] WaitTime ETV
vector 109 DatabaseNetwork.user[17] WaitTime ETV
vector 110 DatabaseNetwork.user[34] WriteAccesses ETV
vector 111 DatabaseNetwork.user[49] ReadAccesses ETV
vector 112 DatabaseNetwork.user[34] WaitTime ETV
vector 113 DatabaseNetwork.user[49] WaitTime ETV
vector 114 DatabaseNetwork.user[25] WriteAccesses ETV
vector 115 DatabaseNetwork.user[25] WaitTime ETV
vector 116 DatabaseNetwork.user[40] WriteAccesses ETV
vector 117 DatabaseNetwork.user[40] WaitTime ETV
vector 118 DatabaseNetwork.user[26] WriteAccesses ETV
vector 119 DatabaseNetwork.user[26] WaitTime ETV
vector 120 DatabaseNetwork.user[22] ReadAccesses ETV
vector 121 DatabaseNetwork.user[22] WaitTime ETV
vector 122 DatabaseNetwork.user[33] ReadAccesses ETV
vector 123 DatabaseNetwork.user[33] WaitTime ETV
vector 124 DatabaseNetwork.user[4] ReadAccesses ETV
vector 125 DatabaseNetwork.user[4] WaitTime ETV
vector 126 DatabaseNetwork.user[48] WriteAccesses ETV
vector 127 DatabaseNetwork.user[27] ReadAccesses ETV
vector 128 DatabaseNetwork.user[27] WaitTime ETV
vector 129 DatabaseNetwork.user[14] ReadAccesses ETV
vector 130 DatabaseNetwork.user[20] ReadAccesses ETV
vector 131 DatabaseNetwork.user[14] WaitTime ETV
vector 132 DatabaseNetwork.user[20] WaitTime ETV
vector 133 DatabaseNetwork.user[43] ReadAccesses ETV
vector 134 DatabaseNetwork.user[22] WriteAccesses ETV
vector 135 DatabaseNetwork.user[20] WriteAccesses ETV
vector 136 DatabaseNetwork.user[19] WriteAccesses ETV
vector 137 DatabaseNetwork.user[19] WaitTime ETV
vector 138 DatabaseNetwork.user[23] ReadAccesses ETV
vector 139 DatabaseNetwork.user[23] WaitTime ETV
vector 140 DatabaseNetwork.user[46] ReadAccesses ETV
vector 141 DatabaseNetwork.user[13] WriteAccesses ETV
vector 142 DatabaseNetwork.user[13] WaitTime ETV
vector 143 DatabaseNetwork.user[40] ReadAccesses ETV
vector 144 DatabaseNetwork.user[29] ReadAccesses ETV
vector 145 DatabaseNetwork.user[29] WaitTime ETV
vector 146 DatabaseNetwork.user[26] ReadAccesses ETV
vector 147 DatabaseNetwork.user[49] WriteAccesses ETV
vector 148 DatabaseNetwork.user[13] ReadAccesses ETV
vector 149 DatabaseNetwork.user[30] ReadAccesses ETV
vector 150 DatabaseNetwork.user[30] WaitTime ETV
vector 151 DatabaseNetwork.user[25] ReadAccesses ETV
vector 152 DatabaseNetwork.user[9] ReadAccesses ETV
vector 153 DatabaseNetwork.user[17] WriteAccesses ETV
vector 154 DatabaseNetwork.user[21] WriteAccesses ETV
vector 155 DatabaseNetwork.user[21] WaitTime ETV
vector 156 DatabaseNetwork.user[14] WriteAccesses ETV
vector 157 DatabaseNetwork.user[45] ReadAccesses ETV
vector 158 DatabaseNetwork.user[16] WriteAccesses ETV
vector 159 DatabaseNetwork.user[36] WriteAccesses ETV
vector 160 DatabaseNetwork.user[36] WaitTime ETV
vector 161 DatabaseNetwork.user[1] ReadAccesses ETV
vector 162 DatabaseNetwork.user[6] WriteAccesses ETV
vector 163 DatabaseNetwork.user[32] WriteAccesses ETV
vector 164 DatabaseNetwork.user[32] WaitTime ETV
vector 165 DatabaseNetwork.user[12] WriteAccesses ETV
vector 166 DatabaseNetwork.user[21] ReadAccesses ETV
vector 167 DatabaseNetwork.user[29] WriteAccesses ETV
vector 168 DatabaseNetwork.user[3] ReadAccesses ETV
vector 169 DatabaseNetwork.user[3] WaitTime ETV
vector 170 DatabaseNetwork.user[0] ReadAccesses ETV
vector 171 DatabaseNetwork.user[34] ReadAccesses ETV
vector 172 DatabaseNetwork.user[41] WriteAccesses ETV
vector 173 DatabaseNetwork.user[30] WriteAccesses ETV
vector 174 DatabaseNetwork.user[5] ReadAccesses ETV
vector 175 DatabaseNetwork.user[5] WaitTime ETV
vector 176 DatabaseNetwork.user[10] ReadAccesses ETV
vector 177 DatabaseNetwork.user[24] ReadAccesses ETV
vector 178 DatabaseNetwork.user[35] ReadAccesses ETV
vector 179 DatabaseNetwork.user[31] ReadAccesses ETV
vector 180 DatabaseNetwork.user[5] WriteAccesses ETV
vector 181 DatabaseNetwork.user[33] WriteAccesses ETV
vector 182 DatabaseNetwork.user[19] ReadAccesses ETV
vector 183 DatabaseNetwork.user[44] WriteAccesses ETV
vector 184 DatabaseNetwork.user[23] WriteAccesses ETV
vector 185 DatabaseNetwork.user[39] ReadAccesses ETV
vector 186 DatabaseNetwork.user[39] WaitTime ETV
vector 187 DatabaseNetwork.user[7] ReadAccesses ETV
vector 188 DatabaseNetwork.user[47] WriteAccesses ETV
vector 189 DatabaseNetwork.user[18] ReadAccesses ETV
vector 190 DatabaseNetwork.user[36] ReadAccesses ETV
vector 191 DatabaseNetwork.user[3] WriteAccesses ETV
vector 192 DatabaseNetwork.user[42] WriteAccesses ETV
vector 193 DatabaseNetwork.user[39] WriteAccesses ETV
vector 194 DatabaseNetwork.user[4] WriteAccesses ETV
vector 195 DatabaseNetwork.user[11] ReadAccesses ETV
vector 196 DatabaseNetwork.user[15] ReadAccesses ETV
vector 197 DatabaseNetwork.user[32] ReadAccesses ETV
vector 198 DatabaseNetwork.user[8] ReadAccesses ETV
vector 199 DatabaseNetwork.user[27] WriteAccesses ETV
0	11581 20787 0 99917 0 9985.036654437139 501 0.055328732896875 131.35346484747 10000.037594165 416922.81646103
1	32368 21246 0 99973 0 9991.863566646104 510 0.0093349850130101 105.73792872625 10002.946031039 378541.88858546
2	53614 20814 0 99969 0 9990.822778174567 501 0.006671636079354 122.43301383314 10000.805167745 402105.36602482
3	74428 22506 0 99979 0 9992.527773103554 541 0.024076723172288 95.789422137469 10029.520994442 356208.7264057
4	96934 20841 0 99851 0 9978.655653803697 501 0.0081008638654811 124.05084326256 10090.195201732 384808.9816491
5	117775 18453 0 99647 0 9958.019060753534 444 0.12104254734967 184.64871073723 10002.475158573 467696.18023661
6	136228 22118 0 99541 0 9946.646254905848 532 0.052575016523552 148.48838426469 10026.20537745 362276.40606197
7	158346 21098 0 99817 0 9976.335272497677 508 0.017334165460247 125.11895387978 10015.381643687 377268.41509959
8	179444 21044 0 99953 0 9988.400311217515 506 0.028776105048933 146.82334337571 10003.399905324 384248.87083549
9	200488 20832 0 99845 0 9978.502135748632 501 0.070646214778403 131.82110323449 10033.888456107 394231.57386405
10	221320 20651 0 100021 0 9998.700818027411 485 0.0011807376732707 143.2684264535 10000.180201406 400283.0250502
11	241971 22416 0 100011 0 9996.248359614293 527 0.039588033028555 103.41705510005 10005.92419518 378940.5194946
12	264387 20592 0 99761 0 9971.165101055764 484 0.03159204245686 180.6853722207 10049.594896703 451635.33558989
13	284979 19484 0 100033 0 9999.859666740273 458 0.018003129142311 121.32245550146 10030.218927294 441841.68809235
14	304463 22946 0 99733 0 9968.204102723239 539 0.090056077923265 111.36785385898 10020.01141949 369495.58976677
15	327409 22422 0 99509 0 9942.951016555797 526 0.0024053410641415 118.39318054545 10004.075669714 355711.67485233
16	349831 22133 0 99905 0 9984.303542605999 519 0.024808010732053 136.10814655659 10017.883725901 382139.9664173
17	371964 22561 0 99925 0 9985.706073942231 531 0.0024718362899742 100.60732406091 10031.218624198 347044.68343013
18	394525 20138 0 99877 0 9981.332755184212 474 0.014479967685213 123.23258523283 10014.32167308 389997.24882745
19	414663 19804 0 99909 0 9984.479993601085 466 0.019720863885406 135.87269473336 10007.248997399 429205.84874149
20	434467 20609 0 99861 0 9979.308258007333 484 0.084756971381987 124.13377350533 10006.551155196 403341.79481949
21	455076 22385 0 100003 0 9995.529940185233 526 0.013210087399531 120.8070043476 10021.786356884 367643.61354534
22	477461 21895 0 99835 0 9977.011483812763 515 0.016065870217381 99.921665086328 10011.093563285 355461.66273291
23	499356 21325 0 99949 0 9987.592366997662 501 0.010646453215402 150.69032973259 10001.774092081 394678.45457317
24	520681 21334 0 99425 0 9931.93430331136 500 0.062957440108611 111.5976432057 10029.01011942 393303.45348033
25	542015 20767 0 99749 0 9969.338155529664 488 0.014248968879297 134.84428963037 10008.010360855 418640.33743576
26	562782 21838 0 99721 0 9964.54080303598 514 0.075433364218743 141.98353102258 10048.110152496 402392.41434784
27	584620 19000 0 100029 0 9999.47196144913 447 0.0094158989867141 114.16182013067 10008.847094362 416797.16864162
28	603620 22082 0 100009 0 9996.218954580985 519 0.025454928156919 147.92555417049 10009.037641334 400105.4764243
29	625702 19520 0 100017 0 9997.50851387198 459 0.0083763041967624 162.50255515238 10018.237233904 450597.73038747
30	645222 21359 0 99985 0 9993.677473794844 502 0.049590159850486 145.77784375094 10023.912639235 402675.50081611
31	666581 19516 0 100025 0 9999.188190008633 458 0.086364465121311 155.02686225897 10001.856939014 455519.84516499
32	686097 21511 0 99801 0 9975.497082504346 505 0.0061519964086966 126.39687114564 10004.794336606 423557.35617291
33	707608 23163 0 99621 0 9954.389128543133 544 0.003792067039462 103.00804123098 10003.818789566 360469.44575044
34	730771 21665 0 99945 0 9986.860040498606 509 0.0096091145687741 117.14607531913 10007.403124155 374907.18788134
35	752436 21596 0 99977 0 9992.485521528041 507 0.10003682773786 136.91679712405 10011.171864499 410433.46640901
36	774032 20476 0 99697 0 9962.292076961249 481 0.019523854290852 123.03327887587 10075.882761805 413875.58331683
37	794508 22490 0 99935 0 9986.209857312786 529 0.063184527032 101.4057904876 10051.680401222 386713.62558751
38	816998 22435 0 99997 0 9995.38919539722 526 0.024594558216665 109.47376666667 10002.773926619 380340.57775517
39	839433 21486 0 99957 0 9989.270747438049 504 0.031937249492462 131.04437044554 10004.869501746 391092.98852232
40	860919 20456 0 99899 0 9984.141077251133 480 0.042171815120014 150.99100752428 10040.192416105 408295.37602832
41	881375 20088 0 99873 0 9981.051361264629 472 0.0077673227493106 126.06590635187 10007.052720562 396332.19438937
42	901463 21872 0 99813 0 9975.881412917333 514 0.052546083556771 145.31976887497 10085.620653138 418602.54463308
43	923335 20954 0 99803 0 9975.583742491894 492 0.056691179743236 124.0443687352 10038.108341455 401012.5685678
44	944289 19714 0 99569 0 9950.138591513122 463 0.0097342423724849 133.99978953529 10023.181868765 428201.91295236
45	964003 22726 0 99921 0 9985.428884117157 534 0.0010222690663683 174.45314655256 10030.080508533 407104.28490193
46	986729 21257 0 99889 0 9983.155814498831 499 0.02086641155883 208.1880980109 10027.023587405 435108.12572167
47	1007986 23175 0 99989 0 9993.883082383209 544 0.030346086546681 84.403177319603 10012.146037203 342431.41582316
48	1031161 20920 0 99885 0 9981.994017286144 491 0.071105986751129 110.25698313087 10051.536610444 393964.30220401
49	1052081 21215 0 100001 0 9995.509866510202 498 0.0058600508818419 131.41728473755 10042.038378848 371421.07521104
50	1073296 6672 1 99681 0.525364736932 9960.994850850584 233 1 1 233 233
51	1079968 21970 4 99972 0.625364736932 9990.922778174567 500 0.099999999998545 0.2281811769758 50.489616212757 5.1391416394241
52	1101938 7578 5 99813 1.350304353086 9975.881412917333 265 1 1 265 265
53	1109516 22566 8 99816 1.450304353086 9975.981412917333 513 0.099999999998545 0.17974631576703 51.565504015831 5.199003303996
54	1132082 7303 9 99777 1.65992651012 9972.78480822044 255 1 1 255 255
55	1139385 23137 12 100000 1.75992651012 9995.48919539722 525 0.099999999998545 0.2124149707106 52.898023443482 5.3582912203882
56	1162522 6782 13 99889 2.030267873818 9983.155814498831 236 1 1 236 236
57	1169304 21986 16 99892 2.130267873818 9983.255814498831 498 0.099999999998545 0.18701772791246 50.131297645552 5.0675316335671
58	1191290 7795 17 99381 2.470338621905 9927.84521718187 272 1 1 272 272
59	1199085 7630 19 99477 2.555543458514 9937.619566561221 266 1 1 266 266
60	1206715 23408 22 99924 2.570338621905 9985.528884117157 533 0.099999999998545 0.1999319436527 53.779483325705 5.4634661689828
61	1230123 23161 24 99512 2.655543458514 9943.051016555797 525 0.099999999998545 0.18502095043732 52.932523682434 5.3646188857742
62	1253284 6991 25 99321 2.72005967253 9922.358565695424 244 1 1 244 244
63	1260275 21578 28 99888 2.82005967253 9982.094017286144 490 0.099999999998545 0.1892036905283 49.417318389079 5.015148534604
64	1281853 7584 29 99425 2.890805482373 9931.93430331136 264 1 1 264 264
65	1289437 22027 32 99428 2.990805482373 9932.03430331136 499 0.099999999998545 0.19483400490026 50.348923986733 5.1123267958608
66	1311464 7305 33 99773 3.354807823798 9972.026900664966 255 1 1 255 255
67	1318769 23191 36 100016 3.454807823798 9996.348359614293 526 0.099999999998545 0.19434540529619 53.193166244315 5.4176593161083
68	1341960 7342 37 99561 3.895607906725 9949.446511817361 256 1 1 256 256
69	1349302 23196 40 99942 3.995607906725 9986.309857312786 528 0.099999999998545 0.16542870853482 53.015858059955 5.3330495144972
70	1372498 7418 41 99989 4.011186056206 9993.883082383209 259 1 1 259 259
71	1379916 7164 43 100009 4.077602339223 9996.218954580985 250 1 1 250 250
72	1387080 7078 45 99585 4.093357685528 9951.652487140313 246 1 1 246 246
73	1394158 23937 48 99992 4.111186056206 9993.983082383209 543 0.099999999998545 0.26597367035208 54.720068151717 5.5574137026179
74	1418095 22781 50 100014 4.177602339223 9996.318954580985 518 0.099999999998545 0.23878031257846 52.713501697451 5.4321642341014
75	1440876 22471 52 99976 4.193357685528 9991.963566646104 509 0.099999999998545 0.17075056750309 51.215319703026 5.1689041003945
76	1463347 7113 53 99761 4.579425894643 9971.165101055764 249 1 1 249 249
77	1470460 21227 56 99764 4.679425894643 9971.265101055764 483 0.099999999998545 0.18945604124929 48.636091646083 4.9163520194418
78	1491687 6698 63 99633 5.981550600929 9956.911190992418 233 1 1 233 233
79	1498385 20167 68 100028 6.081550600929 9999.288190008633 457 0.099999999998545 0.16479988186893 45.94972439904 4.6304568731119
80	1518552 6872 69 99877 6.207479312421 9981.332755184212 240 1 1 240 240
81	1525424 20829 72 99880 6.307479312421 9981.432755184212 473 0.099999999998545 0.19683334857291 47.479471729275 4.779852286543
82	1546253 7605 73 99409 6.789862856486 9930.45358696688 265 1 1 265 265
83	1553858 21637 76 99808 6.889862856486 9975.683742491894 491 0.099999999998545 0.17542329511093 49.342251999737 4.9722772101305
84	1575495 7251 77 99725 7.048490079721 9966.896712963048 253 1 1 253 253
85	1582746 7556 79 99745 7.123634948101 9969.243212488065 263 1 1 263 263
86	1590302 20759 82 99876 7.148490079721 9981.151361264629 471 0.099999999998545 0.18557550421701 47.465745696296 4.8062278439799
87	1611061 22850 84 99908 7.223634948101 9984.403542605999 518 0.099999999998545 0.19730542535899 52.276367468815 5.3105111889948
88	1633911 7218 85 99845 7.729033380436 9978.502135748632 252 1 1 252 252
89	1641129 21984 88 99848 7.829033380436 9978.602135748632 500 0.099999999998545 0.19366955594523 50.509606387319 5.1392972167578
90	1663113 6516 89 100021 8.019548466481 9998.700818027411 227 1 1 227 227
91	1669629 21335 92 100024 8.119548466481 9998.800818027411 484 0.099999999998545 0.167441520181 48.582762620414 4.8859968890149
92	1690964 7758 93 99935 9.883500415491 9986.209857312786 272 1 1 272 272
93	1698722 7045 97 99977 10.461602504546 9992.485521528041 246 1 1 246 246
94	1705767 7671 99 99513 10.486481014234 9944.000481371134 268 1 1 268 268
95	1713438 7663 101 99969 10.536540214125 9990.822778174567 267 1 1 267 267
96	1721101 22292 104 99982 10.561602504546 9992.585521528041 506 0.099999999998545 0.18563406716794 50.824851019644 5.1189976031473
97	1743393 7767 109 99997 10.820522369631 9995.38919539722 270 1 1 270 270
98	1751160 7510 111 99953 10.907230344359 9988.400311217515 262 1 1 262 262
99	1758670 22258 116 99956 11.007230344359 9988.500311217515 505 0.099999999998545 0.1820989907842 50.624933819194 5.0831050957408
100	1780928 6800 117 99569 11.176603522625 9950.138591513122 229 1 1 229 229
101	1787728 20788 120 99572 11.276603522625 9950.238591513122 462 0.099999999998545 0.19846694576427 46.94379600129 4.8162522170361
102	1808516 8037 121 99437 11.430006362468 9932.446024866526 271 1 1 271 271
103	1816553 7691 123 99209 11.453839792544 9910.323207610901 260 1 1 260 260
104	1824244 23932 126 99544 11.530006362468 9946.746254905848 531 0.099999999998545 0.1935876041789 53.528789310212 5.4230933996027
105	1848176 22493 128 99920 11.553839792544 9985.136654437139 500 0.099999999998545 0.19569973682701 50.343911983351 5.0926702031618
106	1870669 7911 133 99529 13.262026102764 9945.590673148077 267 1 1 267 267
107	1878580 7975 135 99925 13.278600377286 9985.706073942231 270 1 1 270 270
108	1886555 22876 138 99820 13.362026102764 9976.435272497677 507 0.099999999998545 0.17140900448021 50.887673063252 5.1151236455648
109	1909431 23770 140 99928 13.378600377286 9985.806073942231 530 0.099999999998545 0.19027284829008 53.554687035375 5.4484720023507
110	1933201 7120 141 99945 13.633735666083 9986.860040498606 240 1 1 240 240
111	1940321 7533 143 100001 13.635828752389 9995.509866510202 254 1 1 254 254
112	1947854 22871 146 99948 13.733735666083 9986.960040498606 508 0.099999999998545 0.19480857404483 50.951242551144 5.1211580990737
113	1970725 22432 148 100006 13.735828752389 9995.609866510202 497 0.099999999998545 0.18265753476408 49.961876269645 5.0376601444147
114	1993157 7181 149 99141 13.805472967174 9904.099084511959 242 1 1 242 242
115	2000338 21917 152 99756 13.905472967174 9969.438155529664 487 0.099999999998545 0.17204125256467 48.845295588303 4.9069042158533
116	2022255 7065 153 99899 14.073895784098 9984.141077251133 238 1 1 238 238
117	2029320 21604 156 99904 14.173895784098 9984.241077251133 479 0.099999999998545 0.13719546324501 47.991441486506 4.8112865015944
118	2050924 7726 157 99677 14.413579226361 9960.481128991454 261 1 1 261 261
119	2058650 23050 160 99724 14.513579226361 9964.64080303598 513 0.099999999998545 0.18801272879318 51.666905557473 5.2267424946443
120	2081700 7803 161 99821 15.063978170199 9976.60843012854 264 1 1 264 264
121	2089503 23117 164 99840 15.163978170199 9977.111483812763 514 0.099999999998545 0.18528611978172 51.860194482614 5.2622259382194
122	2112620 7820 169 99621 15.802296588066 9954.389128543133 264 1 1 264 264
123	2120440 24481 172 99624 15.902296588066 9954.489128543133 543 0.099999999998545 0.18994527906989 54.53165653655 5.4924092537343
124	2144921 7339 173 98409 15.955158478006 9832.860498338904 247 1 1 247 247
125	2152260 22556 176 99856 16.055158478006 9978.755653803697 500 0.099999999998545 0.19963894027751 50.335157783985 5.0928737718271
126	2174816 7324 183 99885 17.233104985481 9981.994017286144 246 1 1 246 246
127	2182140 6225 193 100029 17.676324608463 9999.47196144913 211 1 1 211 211
128	2188365 20080 196 100032 17.776324608463 9999.57196144913 446 0.099999999998545 0.16202017046362 44.8171543204 4.5156521628711
129	2208445 8149 213 99285 19.313347302846 9918.026068530308 275 1 1 275 275
130	2216594 7040 215 99861 19.411445162826 9979.308258007333 237 1 1 237 237
131	2223634 24237 218 99736 19.413347302846 9968.304102723239 538 0.099999999998545 0.19255572358702 54.338584455262 5.5213233148591
132	2247871 21772 220 99864 19.511445162826 9979.408258007333 483 0.099999999998545 0.18766134358611 48.79513861109 4.9633354751472
133	2269643 6703 223 99803 19.907729138827 9975.583742491894 226 1 1 226 226
134	2276346 7419 227 99835 19.925965110103 9977.011483812763 250 1 1 250 250
135	2283765 7295 229 99493 19.94621423757 9940.395507655769 246 1 1 246 246
136	2291060 6812 235 99597 20.033581114353 9952.213654728166 230 1 1 230 230
137	2297872 20887 240 99912 20.133581114353 9984.579993601085 465 0.099999999998545 0.19542866124095 46.892547309072 4.7558260260494
138	2318759 7173 257 99017 22.978710234746 9895.191526794674 242 1 1 242 242
139	2325932 22561 260 99952 23.078710234746 9987.692366997662 500 0.099999999998545 0.1949214096212 50.272640550704 5.0713670356236
140	2348493 7771 261 99627 23.271990122338 9954.743216279198 262 1 1 262 262
141	2356264 6848 269 99673 24.003778731456 9960.132370917575 231 1 1 231 231
142	2363112 20562 272 100036 24.103778731456 9999.959666740273 457 0.099999999998545 0.19837985900813 46.163055037127 4.6933324754907
143	2383674 7167 281 99533 25.007731921145 9946.113605429244 241 1 1 241 241
144	2390841 7165 285 100017 25.44176628254 9997.50851387198 242 1 1 242 242
145	2398006 20593 288 100020 25.54176628254 9997.60851387198 458 0.099999999998545 0.19871659147975 46.177123716437 4.6855215490378
146	2418599 7462 297 99721 27.609243428965 9964.54080303598 252 1 1 252 252
147	2426061 7221 305 99193 28.827742050343 9907.90649914912 243 1 1 243 243
148	2433282 6705 309 100033 30.307693772501 9999.859666740273 226 1 1 226 226
149	2439987 7188 321 98977 30.773545855284 9891.164758285745 242 1 1 242 242
150	2447175 22573 324 99988 30.873545855284 9993.777473794844 501 0.099999999998545 0.18646654336044 50.787021046024 5.190482123384
151	2469748 7252 325 99749 30.916608825114 9969.338155529664 245 1 1 245 245
152	2477000 7363 337 99645 32.570644823218 9958.01700970974 248 1 1 248 248
153	2484363 7712 339 99683 32.572651683373 9961.023329690796 260 1 1 260 260
154	2492075 7324 359 99865 34.099901882417 9980.352006443465 247 1 1 247 247
155	2499399 23653 364 100008 34.199901882417 9995.629940185233 525 0.099999999998545 0.19546673893797 53.116053181252 5.4098805857719
156	2523052 7808 365 99733 34.406190897329 9968.204102723239 263 1 1 263 263
157	2530860 7725 377 99921 35.601701093258 9985.428884117157 261 1 1 261 261
158	2538585 7578 381 99905 35.827445471561 9984.303542605999 255 1 1 255 255
159	2546163 6670 393 99549 37.489107734394 9947.273500150627 225 1 1 225 225
160	2552833 21622 396 99700 37.589107734394 9962.392076961249 480 0.099999999998545 0.19324010510718 48.313198954539 4.8839510705661
161	2574455 7821 399 99973 37.748418869214 9991.863566646104 263 1 1 263 263
162	2582276 7714 403 99541 37.829504992818 9946.646254905848 260 1 1 260 260
163	2589990 7834 409 99801 38.479588623406 9975.497082504346 264 1 1 264 264
164	2597824 22755 412 99806 38.579588623406 9975.597082504346 504 0.099999999998545 0.19581310120338 50.999314984071 5.1975693070089
165	2620579 6941 417 99377 39.198505483643 9927.668355776271 234 1 1 234 234
166	2627520 8246 461 100003 45.384918785011 9995.529940185233 278 1 1 278 278
167	2635766 6402 509 99693 52.339968587156 9961.573389398309 216 1 1 216 216
168	2642168 7537 537 99961 53.63036520913 9989.486276631219 254 1 1 254 254
169	2649705 24375 544 99984 53.73036520913 9992.627773103554 540 0.099999999998545 0.18056657514899 54.194784643791 5.4522686536987
170	2674080 7108 553 99917 54.329107164505 9985.036654437139 240 1 1 240 240
171	2681188 7942 565 99469 55.743218987978 9936.377197535125 268 1 1 268 268
172	2689130 6465 573 99873 56.401739618675 9981.051361264629 218 1 1 218 218
173	2695595 7671 593 99985 57.455216447474 9993.677473794844 259 1 1 259 259
174	2703266 6960 607 99647 59.026887453549 9958.019060753534 235 1 1 235 235
175	2710226 20007 612 99652 59.126887453549 9958.119060753534 443 0.099999999998545 0.21549826024693 44.810365696587 4.5692377726351
176	2730233 7615 617 99501 60.294874630432 9942.307543657597 257 1 1 257 257
177	2737848 6995 645 98377 62.477777196523 9829.892469475255 235 1 1 235 235
178	2744843 7728 669 99577 63.749507266294 9950.538786301968 260 1 1 260 260
179	2752571 6645 685 100025 64.757972511259 9999.188190008633 224 1 1 224 224
180	2759216 6181 689 99229 64.867299160661 9912.83379575179 208 1 1 208 208