file 2917466 1767629713                                         
version 3
run Lognormal-23-20260105-17:15:13-28123
attr configname Lognormal
attr datetime 20260105-17:15:13
attr datetimef 20260105-171513
attr experiment Lognormal
attr inifile omnetpp.ini
attr iterationvars "$N=50, $p=0.9"
attr iterationvarsd N=50/p=0.9
attr iterationvarsf N=50,p=0.9-
attr measurement "$N=50, $p=0.9"
attr network progetto.DatabaseNetwork
attr processid 28123
attr repetition 3
attr replication #3
attr resultdir results
attr runnumber 23
attr seedset 3
itervar N 50
itervar p 0.9
config description "Lognormal distribution (hotspots) - varia N e p"
config *.user[*].tableDistribution "\"lognormal\""
config *.user[*].lognormalM 1.5
config *.user[*].lognormalS 1.0
config *.numUsers 50
config *.user[*].readProbability 0.9
config network progetto.DatabaseNetwork
config sim-time-limit 10000s
config cpu-time-limit 3600s
config repeat 5
config seed-set 3
config output-vector-file "results/Lognormal-$N=50, $p=0.9-3.vec"
config output-scalar-file "results/Lognormal-$N=50, $p=0.9-3.sca"
config result-dir results
config **.vector-recording true
config **.scalar-recording true
config *.numTables 20
config *.user[*].lambda 0.05
config *.user[*].serviceTime 0.1s

vector 0 DatabaseNetwork.user[0] AccessInterval ETV
vector 1 DatabaseNetwork.user[1] AccessInterval ETV
vector 2 DatabaseNetwork.user[2] AccessInterval ETV
vector 3 DatabaseNetwork.user[3] AccessInterval ETV
vector 4 DatabaseNetwork.user[4] AccessInterval ETV
vector 5 DatabaseNetwork.user[5] AccessInterval ETV
vector 6 DatabaseNetwork.user[6] AccessInterval ETV
vector 7 DatabaseNetwork.user[7] AccessInterval ETV
vector 8 DatabaseNetwork.user[8] AccessInterval ETV
vector 9 DatabaseNetwork.user[9] AccessInterval ETV
vector 10 DatabaseNetwork.user[10] AccessInterval ETV
vector 11 DatabaseNetwork.user[11] AccessInterval ETV
vector 12 DatabaseNetwork.user[12] AccessInterval ETV
vector 13 DatabaseNetwork.user[13] AccessInterval ETV
vector 14 DatabaseNetwork.user[14] AccessInterval ETV
vector 15 DatabaseNetwork.user[15] AccessInterval ETV
vector 16 DatabaseNetwork.user[16] AccessInterval ETV
vector 17 DatabaseNetwork.user[17] AccessInterval ETV
vector 18 DatabaseNetwork.user[18] AccessInterval ETV
vector 19 DatabaseNetwork.user[19] AccessInterval ETV
vector 20 DatabaseNetwork.user[20] AccessInterval ETV
vector 21 DatabaseNetwork.user[21] AccessInterval ETV
vector 22 DatabaseNetwork.user[22] AccessInterval ETV
vector 23 DatabaseNetwork.user[23] AccessInterval ETV
vector 24 DatabaseNetwork.user[24] AccessInterval ETV
vector 25 DatabaseNetwork.user[25] AccessInterval ETV
vector 26 DatabaseNetwork.user[26] AccessInterval ETV
vector 27 DatabaseNetwork.user[27] AccessInterval ETV
vector 28 DatabaseNetwork.user[28] AccessInterval ETV
vector 29 DatabaseNetwork.user[29] AccessInterval ETV
vector 30 DatabaseNetwork.user[30] AccessInterval ETV
vector 31 DatabaseNetwork.user[31] AccessInterval ETV
vector 32 DatabaseNetwork.user[32] AccessInterval ETV
vector 33 DatabaseNetwork.user[33] AccessInterval ETV
vector 34 DatabaseNetwork.user[34] AccessInterval ETV
vector 35 DatabaseNetwork.user[35] AccessInterval ETV
vector 36 DatabaseNetwork.user[36] AccessInterval ETV
vector 37 DatabaseNetwork.user[37] AccessInterval ETV
vector 38 DatabaseNetwork.user[38] AccessInterval ETV
vector 39 DatabaseNetwork.user[39] AccessInterval ETV
vector 40 DatabaseNetwork.user[40] AccessInterval ETV
vector 41 DatabaseNetwork.user[41] AccessInterval ETV
vector 42 DatabaseNetwork.user[42] AccessInterval ETV
vector 43 DatabaseNetwork.user[43] AccessInterval ETV
vector 44 DatabaseNetwork.user[44] AccessInterval ETV
vector 45 DatabaseNetwork.user[45] AccessInterval ETV
vector 46 DatabaseNetwork.user[46] AccessInterval ETV
vector 47 DatabaseNetwork.user[47] AccessInterval ETV
vector 48 DatabaseNetwork.user[48] AccessInterval ETV
vector 49 DatabaseNetwork.user[49] AccessInterval ETV
vector 50 DatabaseNetwork.user[11] ReadAccesses ETV
vector 51 DatabaseNetwork.user[11] WaitTime ETV
vector 52 DatabaseNetwork.user[32] ReadAccesses ETV
vector 53 DatabaseNetwork.user[32] WaitTime ETV
vector 54 DatabaseNetwork.user[20] WriteAccesses ETV
vector 55 DatabaseNetwork.user[20] WaitTime ETV
vector 56 DatabaseNetwork.user[13] WriteAccesses ETV
vector 57 DatabaseNetwork.user[13] WaitTime ETV
vector 58 DatabaseNetwork.user[16] ReadAccesses ETV
vector 59 DatabaseNetwork.user[16] WaitTime ETV
vector 60 DatabaseNetwork.user[1] ReadAccesses ETV
vector 61 DatabaseNetwork.user[1] WaitTime ETV
vector 62 DatabaseNetwork.user[17] ReadAccesses ETV
vector 63 DatabaseNetwork.user[17] WaitTime ETV
vector 64 DatabaseNetwork.user[5] ReadAccesses ETV
vector 65 DatabaseNetwork.user[12] ReadAccesses ETV
vector 66 DatabaseNetwork.user[5] WaitTime ETV
vector 67 DatabaseNetwork.user[12] WaitTime ETV
vector 68 DatabaseNetwork.user[21] ReadAccesses ETV
vector 69 DatabaseNetwork.user[21] WaitTime ETV
vector 70 DatabaseNetwork.user[46] ReadAccesses ETV
vector 71 DatabaseNetwork.user[46] WaitTime ETV
vector 72 DatabaseNetwork.user[20] ReadAccesses ETV
vector 73 DatabaseNetwork.user[14] ReadAccesses ETV
vector 74 DatabaseNetwork.user[14] WaitTime ETV
vector 75 DatabaseNetwork.user[25] ReadAccesses ETV
vector 76 DatabaseNetwork.user[25] WaitTime ETV
vector 77 DatabaseNetwork.user[15] ReadAccesses ETV
vector 78 DatabaseNetwork.user[15] WaitTime ETV
vector 79 DatabaseNetwork.user[36] ReadAccesses ETV
vector 80 DatabaseNetwork.user[36] WaitTime ETV
vector 81 DatabaseNetwork.user[45] ReadAccesses ETV
vector 82 DatabaseNetwork.user[26] ReadAccesses ETV
vector 83 DatabaseNetwork.user[45] WaitTime ETV
vector 84 DatabaseNetwork.user[26] WaitTime ETV
vector 85 DatabaseNetwork.user[40] ReadAccesses ETV
vector 86 DatabaseNetwork.user[40] WaitTime ETV
vector 87 DatabaseNetwork.user[4] WriteAccesses ETV
vector 88 DatabaseNetwork.user[4] WaitTime ETV
vector 89 DatabaseNetwork.user[41] ReadAccesses ETV
vector 90 DatabaseNetwork.user[41] WaitTime ETV
vector 91 DatabaseNetwork.user[27] ReadAccesses ETV
vector 92 DatabaseNetwork.user[27] WaitTime ETV
vector 93 DatabaseNetwork.user[37] ReadAccesses ETV
vector 94 DatabaseNetwork.user[37] WaitTime ETV
vector 95 DatabaseNetwork.user[38] ReadAccesses ETV
vector 96 DatabaseNetwork.user[38] WaitTime ETV
vector 97 DatabaseNetwork.user[9] ReadAccesses ETV
vector 98 DatabaseNetwork.user[9] WaitTime ETV
vector 99 DatabaseNetwork.user[44] ReadAccesses ETV
vector 100 DatabaseNetwork.user[18] ReadAccesses ETV
vector 101 DatabaseNetwork.user[44] WaitTime ETV
vector 102 DatabaseNetwork.user[18] WaitTime ETV
vector 103 DatabaseNetwork.user[23] ReadAccesses ETV
vector 104 DatabaseNetwork.user[47] WriteAccesses ETV
vector 105 DatabaseNetwork.user[23] WaitTime ETV
vector 106 DatabaseNetwork.user[22] ReadAccesses ETV
vector 107 DatabaseNetwork.user[22] WaitTime ETV
vector 108 DatabaseNetwork.user[47] WaitTime ETV
vector 109 DatabaseNetwork.user[29] ReadAccesses ETV
vector 110 DatabaseNetwork.user[29] WaitTime ETV
vector 111 DatabaseNetwork.user[6] ReadAccesses ETV
vector 112 DatabaseNetwork.user[6] WaitTime ETV
vector 113 DatabaseNetwork.user[4] ReadAccesses ETV
vector 114 DatabaseNetwork.user[48] ReadAccesses ETV
vector 115 DatabaseNetwork.user[48] WaitTime ETV
vector 116 DatabaseNetwork.user[0] WriteAccesses ETV
vector 117 DatabaseNetwork.user[39] ReadAccesses ETV
vector 118 DatabaseNetwork.user[0] WaitTime ETV
vector 119 DatabaseNetwork.user[39] WaitTime ETV
vector 120 DatabaseNetwork.user[34] ReadAccesses ETV
vector 121 DatabaseNetwork.user[34] WaitTime ETV
vector 122 DatabaseNetwork.user[7] ReadAccesses ETV
vector 123 DatabaseNetwork.user[7] WaitTime ETV
vector 124 DatabaseNetwork.user[43] ReadAccesses ETV
vector 125 DatabaseNetwork.user[43] WaitTime ETV
vector 126 DatabaseNetwork.user[30] ReadAccesses ETV
vector 127 DatabaseNetwork.user[30] WaitTime ETV
vector 128 DatabaseNetwork.user[17] WriteAccesses ETV
vector 129 DatabaseNetwork.user[24] ReadAccesses ETV
vector 130 DatabaseNetwork.user[24] WaitTime ETV
vector 131 DatabaseNetwork.user[28] ReadAccesses ETV
vector 132 DatabaseNetwork.user[28] WaitTime ETV
vector 133 DatabaseNetwork.user[42] ReadAccesses ETV
vector 134 DatabaseNetwork.user[42] WaitTime ETV
vector 135 DatabaseNetwork.user[19] ReadAccesses ETV
vector 136 DatabaseNetwork.user[19] WaitTime ETV
vector 137 DatabaseNetwork.user[2] ReadAccesses ETV
vector 138 DatabaseNetwork.user[2] WaitTime ETV
vector 139 DatabaseNetwork.user[49] WriteAccesses ETV
vector 140 DatabaseNetwork.user[49] WaitTime ETV
vector 141 DatabaseNetwork.user[33] ReadAccesses ETV
vector 142 DatabaseNetwork.user[33] WaitTime ETV
vector 143 DatabaseNetwork.user[40] WriteAccesses ETV
vector 144 DatabaseNetwork.user[13] ReadAccesses ETV
vector 145 DatabaseNetwork.user[3] ReadAccesses ETV
vector 146 DatabaseNetwork.user[3] WaitTime ETV
vector 147 DatabaseNetwork.user[41] WriteAccesses ETV
vector 148 DatabaseNetwork.user[49] ReadAccesses ETV
vector 149 DatabaseNetwork.user[14] WriteAccesses ETV
vector 150 DatabaseNetwork.user[0] ReadAccesses ETV
vector 151 DatabaseNetwork.user[8] ReadAccesses ETV
vector 152 DatabaseNetwork.user[8] WaitTime ETV
vector 153 DatabaseNetwork.user[10] ReadAccesses ETV
vector 154 DatabaseNetwork.user[10] WaitTime ETV
vector 155 DatabaseNetwork.user[24] WriteAccesses ETV
vector 156 DatabaseNetwork.user[31] ReadAccesses ETV
vector 157 DatabaseNetwork.user[31] WaitTime ETV
vector 158 DatabaseNetwork.user[30] WriteAccesses ETV
vector 159 DatabaseNetwork.user[6] WriteAccesses ETV
vector 160 DatabaseNetwork.user[5] WriteAccesses ETV
vector 161 DatabaseNetwork.user[46] WriteAccesses ETV
vector 162 DatabaseNetwork.user[35] WriteAccesses ETV
vector 163 DatabaseNetwork.user[35] WaitTime ETV
vector 164 DatabaseNetwork.user[35] ReadAccesses ETV
vector 165 DatabaseNetwork.user[19] WriteAccesses ETV
vector 166 DatabaseNetwork.user[38] WriteAccesses ETV
vector 167 DatabaseNetwork.user[48] WriteAccesses ETV
vector 168 DatabaseNetwork.user[10] WriteAccesses ETV
vector 169 DatabaseNetwork.user[27] WriteAccesses ETV
vector 170 DatabaseNetwork.user[23] WriteAccesses ETV
vector 171 DatabaseNetwork.user[42] WriteAccesses ETV
vector 172 DatabaseNetwork.user[29] WriteAccesses ETV
vector 173 DatabaseNetwork.user[9] WriteAccesses ETV
vector 174 DatabaseNetwork.user[47] ReadAccesses ETV
vector 175 DatabaseNetwork.user[1] WriteAccesses ETV
vector 176 DatabaseNetwork.user[2] WriteAccesses ETV
vector 177 DatabaseNetwork.user[45] WriteAccesses ETV
vector 178 DatabaseNetwork.user[21] WriteAccesses ETV
vector 179 DatabaseNetwork.user[15] WriteAccesses ETV
vector 180 DatabaseNetwork.user[16] WriteAccesses ETV
vector 181 DatabaseNetwork.user[39] WriteAccesses ETV
vector 182 DatabaseNetwork.user[3] WriteAccesses ETV
vector 183 DatabaseNetwork.user[37] WriteAccesses ETV
vector 184 DatabaseNetwork.user[28] WriteAccesses ETV
vector 185 DatabaseNetwork.user[44] WriteAccesses ETV
vector 186 DatabaseNetwork.user[34] WriteAccesses ETV
vector 187 DatabaseNetwork.user[8] WriteAccesses ETV
vector 188 DatabaseNetwork.user[11] WriteAccesses ETV
vector 189 DatabaseNetwork.user[25] WriteAccesses ETV
vector 190 DatabaseNetwork.user[12] WriteAccesses ETV
vector 191 DatabaseNetwork.user[22] WriteAccesses ETV
vector 192 DatabaseNetwork.user[32] WriteAccesses ETV
vector 193 DatabaseNetwork.user[31] WriteAccesses ETV
vector 194 DatabaseNetwork.user[7] WriteAccesses ETV
vector 195 DatabaseNetwork.user[36] WriteAccesses ETV
vector 196 DatabaseNetwork.user[33] WriteAccesses ETV
vector 197 DatabaseNetwork.user[26] WriteAccesses ETV
vector 198 DatabaseNetwork.user[18] WriteAccesses ETV
vector 199 DatabaseNetwork.user[43] WriteAccesses ETV
0	11583 21471 0 99815 0 9987.602127316908 516 0.007479047717128 123.11526786441 10045.526072871 395750.6389026
1	33054 22162 0 99651 0 9972.227242901826 533 0.10226643015829 142.88426527076 10003.718048379 364204.97718744
2	55216 19825 0 99945 0 9998.728044113561 477 0.010712593799817 122.6721385108 10016.419924069 408962.23464714
3	75041 21097 0 99925 0 9997.850736889837 508 0.0800429180904 110.92709704499 10007.345633911 384795.96542343
4	96138 20185 0 99533 0 9961.34352252844 485 0.062252596247073 120.40094958465 10014.7654703 406203.78083341
5	116323 20183 0 99357 0 9941.854728914283 486 0.019894816216929 151.20854967726 10040.919574854 452421.95571533
6	136506 21301 0 99929 0 9998.099996706859 512 0.028152853028963 225.05446074172 10013.381558753 406998.63443719
7	157807 20302 0 99869 0 9991.918063346884 489 0.15189117821864 132.97416330326 10001.927469702 400778.06059494
8	178109 20770 0 99601 0 9968.098654266964 500 0.042157302490277 128.48635673662 10038.296916539 392566.51314113
9	198879 20724 0 99525 0 9960.55149879044 498 0.063928200683529 160.10904199969 10076.598842377 448017.40443294
10	219603 20372 0 99581 0 9967.563664546412 479 0.037770127354026 105.51231843107 10013.455582788 399656.93108644
11	239975 21900 0 99173 0 9928.15334238658 514 0.038584006938171 110.1057803554 10002.197522767 395836.90421621
12	261875 20168 0 99893 0 9993.986448609278 474 0.11620934640164 127.67243282417 10003.310917609 401870.22641789
13	282043 21354 0 99901 0 9994.398231895596 501 0.045710775265521 119.80975247525 10004.965731328 392096.41808498
14	303397 22161 0 99865 0 9991.81533241574 520 0.046123408011139 124.0672332975 10003.259574735 383505.45385924
15	325558 22055 0 99765 0 9983.023330027052 518 0.054828368158694 103.73537837627 10012.71475796 367521.44168441
16	347613 21943 0 99885 0 9993.062954547904 515 0.0079108492367303 124.11314944507 10011.458726669 385992.8695706
17	369556 20243 0 99797 0 9985.382123356739 476 0.1027697477237 166.22247997431 10013.114132932 446286.25248338
18	389799 20707 0 99497 0 9956.669194622444 487 0.023148281850809 116.89816264797 10001.183698541 391517.43045509
19	410506 22421 0 99513 0 9957.872701764933 526 0.00340333292487 140.69827984347 10010.671912921 367919.31457347
20	432927 19912 0 99939 0 9998.530972670138 468 0.0084339027593333 140.86468137091 10025.910625716 437533.41851586
21	452839 21440 0 99937 0 9998.518633700562 503 0.071436328498829 119.67005059116 10002.491818753 390359.54713039
22	474279 22064 0 99751 0 9982.190186299508 518 0.036874728249892 174.14948118317 10007.054447551 412556.9044022
23	496343 22048 0 99829 0 9988.203080173327 517 0.03202188360964 137.75161133363 10010.198730123 390711.70999163
24	518391 22661 0 99705 0 9978.693861603118 532 0.0012539440833576 165.55292645892 10006.616031581 385179.21577212
25	541052 20814 0 99801 0 9985.74194701836 489 0.10359056904613 114.48913051299 10045.878008041 398187.78317834
26	561866 20052 0 99285 0 9938.107291767561 471 0.056525667606476 152.28911998209 10001.698572914 423515.91287248
27	581918 21586 0 99825 0 9987.847413494712 507 0.021574599850278 123.11030721213 10008.167690824 391231.05801567
28	603504 22399 0 99853 0 9990.868617356544 526 0.025393876907691 128.10422122619 10011.870275542 366412.28089726
29	625903 21277 0 99933 0 9998.337224885025 500 0.0015927693787653 139.30162197618 10018.148963691 412802.67511949
30	647180 22458 0 99659 0 9972.3131129696 527 0.082211788960819 149.90156177853 10008.331940248 390443.9107502
31	669638 22187 0 99813 0 9987.562962895333 521 0.037447913047065 111.13413998377 10016.203754822 377964.84482301
32	691825 21054 0 99949 0 9999.309208337551 495 0.0051995978451505 124.34164981153 10026.72197998 402500.00077032
33	712879 20373 0 99743 0 9981.895403971032 479 0.058167932903804 147.72997462308 10120.132911575 429277.62277889
34	733252 21266 0 99917 0 9996.19836025113 500 0.12711280641614 146.38021377935 10023.396230826 413218.54896372
35	754518 21713 0 99837 0 9989.306559820826 510 0.0067739716008636 112.09228510812 10037.393404709 369243.41359375
36	776231 21247 0 99725 0 9980.987295307764 500 0.058872824308969 108.41332700917 10014.642420455 377802.90488222
37	797478 20318 0 99701 0 9978.056701674447 477 0.056226943217795 123.55126937643 10057.093011877 424561.0880328
38	817796 20776 0 99847 0 9989.735408276872 488 0.013223488671316 142.43677202105 10014.020280594 433140.5111068
39	838572 20407 0 99671 0 9972.442097119032 480 0.016701133296684 176.41508272807 10007.921369154 437098.51157627
40	858979 20481 0 99307 0 9939.246448423195 481 0.023872989768715 138.54582606471 10000.788663739 451073.58621549
41	879460 21436 0 99919 0 9996.201016671951 504 0.009578603778767 118.41540359098 10007.813362492 384836.13278014
42	900896 20610 0 99861 0 9991.200229497653 484 0.035114208175165 127.94583310069 10017.814730615 417873.15604109
43	921506 21668 0 99831 0 9988.287016457089 509 0.016473301243118 127.78509307249 10002.51570361 414550.73971497
44	943174 21347 0 99529 0 9960.694564498425 502 0.049434798978046 110.92803873653 10000.548713544 396395.52554015
45	964521 22481 0 99877 0 9992.607966157548 528 0.00093096239929842 142.02293578707 10014.657501122 387829.9241607
46	987002 21858 0 99597 0 9967.999516682089 514 0.050019981858296 131.9623142691 10000.908386649 374703.39386375
47	1008860 21288 0 99645 0 9972.084790309158 500 0.040594498554692 158.83540858549 10013.118626118 401722.4843895
48	1030148 21709 0 99953 0 9999.672982182854 510 0.016136078588728 167.5859426027 10000.251123839 433313.91294854
49	1051857 20622 0 99389 0 9944.552352569464 485 0.020363980921825 190.59601362892 10033.332377682 448035.17410565
50	1072479 13202 1 99173 0.378519642865 9928.15334238658 461 1 1 461 461
51	1085681 22594 4 99176 0.478519642865 9928.25334238658 513 0.099999999998545 0.19636712730789 51.615486393832 5.2146249130747
52	1108275 12597 5 99949 0.485482608732 9999.309208337551 440 1 1 440 440
53	1120872 21732 8 99952 0.585482608732 9999.409208337551 494 0.099999999998545 0.19370136839098 49.625988023537 5.0028076551861
54	1142604 1514 9 96901 0.606631994795 9708.229764238157 53 1 1 53 53
55	1144118 20549 12 99944 0.706631994795 9998.630972670138 467 0.099999999998545 0.19136697386602 46.948544187596 4.7377525692636
56	1164667 1922 13 98529 0.829584574702 9875.522484852712 67 1 1 67 67
57	1166589 22023 16 99904 0.929584574702 9994.498231895596 500 0.099999999998545 0.18502882100529 50.168063900843 5.0474828200496
58	1188612 13157 17 99885 1.05677835357 9993.062954547904 459 1 1 459 459
59	1201769 22616 20 99890 1.15677835357 9993.162954547904 514 0.099999999998545 0.16090632573469 51.516893017607 5.1695755715593
60	1224385 13915 21 99651 1.467008759288 9972.227242901826 485 1 1 485 485
61	1238300 23436 24 99662 1.567008759288 9972.327242901826 532 0.099999999998545 0.10000000000036 53.199999999985 5.3199999999969
62	1261736 12182 25 99797 1.964421148736 9985.382123356739 425 1 1 425 425
63	1273918 20905 28 99800 2.064421148736 9985.482123356739 475 0.099999999998545 0.1783899916536 47.678765569597 4.7981802389438
64	1294823 12348 33 99357 2.586885229816 9941.854728914283 431 1 1 431 431
65	1307171 12295 35 99893 2.684010980209 9993.986448609278 429 1 1 429 429
66	1319466 21300 38 99362 2.686885229816 9941.954728914283 485 0.099999999998545 0.16455363958266 48.64394122266 4.8861714353093
67	1340766 20867 40 99896 2.784010980209 9994.086448609278 473 0.099999999998545 0.17695897086742 47.376958970853 4.7513144773677
68	1361633 12926 41 99937 3.141736494925 9998.518633700562 450 1 1 450 450
69	1374559 22164 44 99942 3.241736494925 9998.618633700562 502 0.099999999998545 0.18172490740699 50.469881797116 5.0909550248143
70	1396723 13009 45 99597 3.412628840718 9967.999516682089 454 1 1 454 454
71	1409732 22594 48 99604 3.512628840718 9968.099516682089 513 0.099999999998545 0.12928127424811 51.332727884701 5.1374148490853
72	1432326 11861 49 99939 3.686383546934 9998.530972670138 414 1 1 414 414
73	1444187 13436 53 99865 4.644767649377 9991.81533241574 468 1 1 468 468
74	1457623 22869 56 99868 4.744767649377 9991.91533241574 519 0.099999999998545 0.18046630972731 52.040905347315 5.2283087737291
75	1480492 12436 57 99801 4.856137582298 9985.74194701836 434 1 1 434 434
76	1492928 21493 60 99804 4.956137582298 9985.84194701836 488 0.099999999998545 0.12943403178542 48.829434031793 4.8867531685858
77	1514421 13168 61 99765 5.697408622634 9983.023330027052 459 1 1 459 459
78	1527589 22795 64 99768 5.797408622634 9983.123330027052 517 0.099999999998545 0.18705567968004 52.020855364833 5.259855615065
79	1550384 12734 65 99725 6.001907866846 9980.987295307764 445 1 1 445 445
80	1563118 21935 68 99728 6.101907866846 9981.087295307764 499 0.099999999998545 0.15011492578469 49.962357043559 5.0051327839458
81	1585053 13622 71 99877 6.429468674703 9992.607966157548 475 1 1 475 475
82	1598675 11883 75 99229 6.528105529747 9934.146612538475 415 1 1 415 415
83	1610558 23217 78 99882 6.529468674703 9992.707966157548 527 0.099999999998545 0.10000000000036 52.699999999998 5.2699999999997
84	1633775 20679 80 99290 6.628105529747 9938.207291767561 470 0.099999999998545 0.15936292303695 47.173902438629 4.7429697033074
85	1654454 12213 81 99307 6.668240890524 9939.246448423195 426 1 1 426 426
86	1666667 21127 84 99314 6.768240890524 9939.346448423195 480 0.099999999998545 0.16508242020245 48.140212052946 4.8352704163041
87	1687794 1203 85 96617 6.875308165935 9676.470875627938 42 1 1 42 42
88	1688997 21324 88 99536 6.975308165935 9961.44352252844 484 0.099999999998545 0.13385276961981 48.433852769624 4.8479165639358
89	1710321 12261 89 99919 7.316061781284 9996.201016671951 428 1 1 428 428
90	1722582 22121 92 99924 7.416061781284 9996.301016671951 503 0.099999999998545 0.19042139622101 50.399463725553 5.0581505377251
91	1744703 13079 93 99825 8.736176800439 9987.847413494712 456 1 1 456 456
92	1757782 22312 96 99828 8.836176800439 9987.947413494712 506 0.099999999998545 0.13024947517701 50.630249475181 5.0669649257847
93	1780094 12185 97 99701 10.295355755508 9978.056701674447 425 1 1 425 425
94	1792279 20952 100 99704 10.395355755508 9978.156701674447 476 0.099999999998545 0.10000000000036 47.6 4.76
95	1813231 12436 101 99847 10.726328631756 9989.735408276872 434 1 1 434 434
96	1825667 21405 104 99852 10.826328631756 9989.835408276872 487 0.099999999998545 0.15839441038042 48.851425793235 4.9081556230462
97	1847072 13009 105 99525 11.491713496228 9960.55149879044 453 1 1 453 453
98	1860081 21947 108 99528 11.591713496228 9960.65149879044 497 0.099999999998545 0.15757941821539 49.757579418207 4.9848312730433
99	1882028 12749 109 99529 11.612580851988 9960.694564498425 446 1 1 446 446
100	1894777 12764 111 99497 11.625313641091 9956.669194622444 431 1 1 431 431
101	1907541 22544 114 99532 11.712580851988 9960.794564498425 501 0.099999999998545 0.14957795006376 50.176871390087 5.028279044077
102	1930085 21872 116 99500 11.725313641091 9956.769194622444 486 0.099999999998545 0.10000000000036 48.600000000007 4.8600000000014
103	1951957 13492 117 99585 12.072430324157 9967.650450068464 454 1 1 454 454
104	1965449 1361 121 99069 12.125000917022 9919.891847921676 46 1 1 46 46
105	1966810 23263 124 99834 12.172430324157 9988.303080173327 516 0.099999999998545 0.11751969437591 51.61751969438 5.163810878567
106	1990073 13837 125 99751 12.206777311901 9982.190186299508 466 1 1 466 466
107	2003910 23307 130 99756 12.306777311901 9982.290186299508 517 0.099999999998545 0.19584083556947 51.795840835566 5.1983536328758
108	2027217 22512 132 99650 12.314107022588 9972.184790309158 499 0.099999999998545 0.189106105566 50.263935733404 5.0891270199151
109	2049729 13226 141 99933 13.570528575678 9998.337224885025 446 1 1 446 446
110	2062955 22464 144 99936 13.670528575678 9998.437224885025 499 0.099999999998545 0.10000000000036 49.900000000001 4.9900000000001
111	2085419 13509 149 99929 14.300805947153 9998.099996706859 455 1 1 455 455
112	2098928 23039 152 99932 14.400805947153 9998.199996706859 511 0.099999999998545 0.11294963296223 51.11294963297 5.1127576195878
113	2121967 13121 153 99533 14.573711385179 9961.34352252844 442 1 1 442 442
114	2135088 13731 161 99953 15.733735131438 9999.672982182854 463 1 1 463 463
115	2148819 22931 164 99956 15.833735131438 9999.772982182854 509 0.099999999998545 0.19971975715634 51.130857611891 5.1564732938588
116	2171750 1749 165 98553 16.005647817852 9876.579991404161 59 1 1 59 59
117	2173499 12447 167 99671 16.093732643296 9972.442097119032 420 1 1 420 420
118	2185946 23235 170 99822 16.105647817852 9987.702127316908 515 0.099999999998545 0.145900302462 51.558510056278 5.1639678549131
119	2209181 21599 172 99676 16.193732643296 9972.542097119032 479 0.099999999998545 0.10000000000036 47.899999999995 4.7899999999989
120	2230780 13471 173 99789 16.367591712189 9984.527461425897 454 1 1 454 454
121	2244251 22484 176 99922 16.467591712189 9996.29836025113 499 0.099999999998545 0.18985906268244 50.057426650584 5.0324274557047
122	2266735 13239 181 99457 16.847395664611 9953.252834618227 447 1 1 447 447
123	2279974 21954 184 99872 16.947395664611 9992.018063346884 488 0.099999999998545 0.14398352169974 48.875531303701 4.8980360734709
124	2301928 13545 191 99831 17.66775889018 9988.287016457089 457 1 1 457 457
125	2315473 22920 196 99836 17.76775889018 9988.387016457089 508 0.099999999998545 0.14893404388022 50.89210168358 5.1022350238688
126	2338393 14171 197 99659 17.874095078863 9972.3131129696 477 1 1 477 477
127	2352564 23741 200 99670 17.974095078863 9972.4131129696 526 0.099999999998545 0.1933890832388 52.762631553131 5.3060423511302
128	2376305 1477 201 96041 18.978123097032 9612.777424950168 50 1 1 50 50
129	2377782 14313 229 99705 20.947590863274 9978.693861603118 482 1 1 482 482
130	2392095 23947 234 99710 21.047590863274 9978.793861603118 531 0.099999999998545 0.10000000000036 53.099999999994 5.3099999999988
131	2416042 13938 253 99853 22.555976236379 9990.868617356544 470 1 1 470 470
132	2429980 23661 256 99858 22.655976236379 9990.968617356544 525 0.099999999998545 0.16152930931912 52.62177945466 5.2791348982581
133	2453641 13000 269 99861 23.627137632438 9991.200229497653 438 1 1 438 438
134	2466641 21801 272 99864 23.727137632438 9991.300229497653 483 0.099999999998545 0.13646701754078 48.33646701755 4.8386232468783
135	2488442 14020 273 99513 23.737309924295 9957.872701764933 472 1 1 472 472
136	2502462 23700 276 99516 23.837309924295 9957.972701764933 525 0.099999999998545 0.19622675877417 52.780955115369 5.3313241333261
137	2526162 12576 285 99945 24.630156904837 9998.728044113561 424 1 1 424 424
138	2538738 21438 290 99948 24.730156904837 9998.828044113561 476 0.099999999998545 0.17490158910368 47.728776626756 4.7942680930845
139	2560176 1394 309 92933 28.348704517473 9302.839254935334 47 1 1 47 47
140	2561570 21830 312 99392 28.448704517473 9944.652352569464 484 0.099999999998545 0.1655061288111 48.465506128799 4.8573922786717
141	2583400 13261 321 99743 29.033848991076 9981.895403971032 447 1 1 447 447
142	2596661 21518 324 99748 29.133848991076 9981.995403971032 478 0.099999999998545 0.14996640227946 47.89539410539 4.8036391386437
143	2618179 1593 333 94997 29.632501835933 9502.547340710334 54 1 1 54 54
144	2619772 12871 381 99901 33.931809311181 9994.398231895596 433 1 1 433 433
145	2632643 13908 397 99925 36.645260577018 9997.850736889837 469 1 1 469 469
146	2646551 22846 400 99928 36.745260577018 9997.950736889837 507 0.099999999998545 0.18966396026462 50.789663960268 5.0959724178239
147	2669397 2215 421 99841 39.355121983809 9989.526969589788 75 1 1 75 75
148	2671612 12951 437 99389 39.909488265527 9944.552352569464 437 1 1 437 437
149	2684563 1513 447 97631 41.426967190208 9784.88734457342 51 1 1 51 51
150	2686076 13548 465 99815 42.625305121081 9987.602127316908 456 1 1 456 456
151	2699624 13314 509 99601 44.688616925188 9968.098654266964 449 1 1 449 449
152	2712938 22493 512 99610 44.788616925188 9968.198654266964 499 0.099999999998545 0.14949514542377 50.034574914851 5.0224462490164
153	2735431 12993 517 99581 45.32373084527 9967.563664546412 438 1 1 438 438
154	2748424 21556 520 99588 45.42373084527 9967.663664546412 478 0.099999999998545 0.10252113614297 47.802521136153 4.780510583358
155	2769980 1451 549 94565 48.546499601022 9462.511056915778 49 1 1 49 49
156	2771431 14054 553 99813 48.906363030484 9987.562962895333 474 1 1 474 474
157	2785485 23461 556 99818 49.006363030484 9987.662962895333 520 0.099999999998545 0.18283899022481 52.150294393213 5.241471408336
158	2808946 1453 603 98489 58.678927428398 9872.501405278245 49 1 1 49 49
159	2810399 1659 613 99909 58.954124358242 9995.33323972673 56 1 1 56 56
160	2812058 1596 645 95115 60.969877018081 9515.61620093049 54 1 1 54 54
161	2813654 1745 721 97969 72.438311357154 9819.614527536666 59 1 1 59 59
162	2815399 1335 729 98881 72.724427832817 9904.662550534168 45 1 1 45 45
163	2816734 22974 732 99840 72.824427832817 9989.406559820826 509 0.099999999998545 0.16162156154496 51.05685007935 5.1291394599968
164	2839708 13768 773 99837 76.116470035259 9989.306559820826 464 1 1 464 464
165	2853476 1575 845 95321 80.576084091528 9536.851852840783 53 1 1 53 53
166	2855051 1576 953 99189 93.016396060183 9930.004050754965 53 1 1 53 53
167	2856627 1358 961 99913 95.24925161677 9995.546535264133 46 1 1 46 46
168	2857985 1184 973 98223 96.777598867459 9843.561223854407 40 1 1 40 40
169	2859169 1478 1021 95143 101.634449569478 9517.034871288996 50 1 1 50 50
170	2860647 1839 1045 99829 103.3298494044 9988.203080173327 62 1 1 62 62
171	2862486 1340 1049 98109 103.481357120096 9832.403418268309 45 1 1 45 45
172	2863826 1575 1073 96851 105.443551519583 9704.508085464202 53 1 1 53 53
173	2865401 1309 1157 98013 116.778906418719 9823.265131535954 44 1 1 44 44
174	2866710 13448 1189 99645 120.129135452313 9972.084790309158 453 1 1 453 453
175	2880158 1393 1263 99559 125.881031504483 9963.891354035166 47 1 1 47 47
176	2881551 1547 1273 98069 127.162425506506 9829.328782275044 52 1 1 52 52
177	2883098 1540 1437 99127 144.836782655106 9925.434937028174 52 1 1 52 52
178	2884638 1549 1465 92641 146.846861464394 9278.34237718632 52 1 1 52 52
179	2886187 1721 1575 96457 156.930503267668 9659.934869884403 58 1 1 58 58
180	2887908 1626 1663 98845 168.213386073055 9902.598536353605 55 1 1 55 55