file 4447394 1767628885                                         
version 3
run Lognormal-47-20260105-17:01:25-25149
attr configname Lognormal
attr datetime 20260105-17:01:25
attr datetimef 20260105-170125
attr experiment Lognormal
attr inifile omnetpp.ini
attr iterationvars "$N=75, $p=0.9"
attr iterationvarsd N=75/p=0.9
attr iterationvarsf N=75,p=0.9-
attr measurement "$N=75, $p=0.9"
attr network progetto.DatabaseNetwork
attr processid 25149
attr repetition 2
attr replication #2
attr resultdir results
attr runnumber 47
attr seedset 2
itervar N 75
itervar p 0.9
config description "Lognormal distribution (hotspots) - varia N e p"
config *.user[*].tableDistribution "\"lognormal\""
config *.user[*].lognormalM 1.5
config *.user[*].lognormalS 1.0
config *.numUsers 75
config *.user[*].readProbability 0.9
config network progetto.DatabaseNetwork
config sim-time-limit 10000s
config cpu-time-limit 3600s
config repeat 5
config seed-set 2
config output-vector-file "results/Lognormal-$N=75, $p=0.9-2.vec"
config output-scalar-file "results/Lognormal-$N=75, $p=0.9-2.sca"
config result-dir results
config **.vector-recording true
config **.scalar-recording true
config *.numTables 20
config *.user[*].lambda 0.05
config *.user[*].serviceTime 0.1s

vector 0 DatabaseNetwork.user[0] AccessInterval ETV
vector 1 DatabaseNetwork.user[1] AccessInterval ETV
vector 2 DatabaseNetwork.user[2] AccessInterval ETV
vector 3 DatabaseNetwork.user[3] AccessInterval ETV
vector 4 DatabaseNetwork.user[4] AccessInterval ETV
vector 5 DatabaseNetwork.user[5] AccessInterval ETV
vector 6 DatabaseNetwork.user[6] AccessInterval ETV
vector 7 DatabaseNetwork.user[7] AccessInterval ETV
vector 8 DatabaseNetwork.user[8] AccessInterval ETV
vector 9 DatabaseNetwork.user[9] AccessInterval ETV
vector 10 DatabaseNetwork.user[10] AccessInterval ETV
vector 11 DatabaseNetwork.user[11] AccessInterval ETV
vector 12 DatabaseNetwork.user[12] AccessInterval ETV
vector 13 DatabaseNetwork.user[13] AccessInterval ETV
vector 14 DatabaseNetwork.user[14] AccessInterval ETV
vector 15 DatabaseNetwork.user[15] AccessInterval ETV
vector 16 DatabaseNetwork.user[16] AccessInterval ETV
vector 17 DatabaseNetwork.user[17] AccessInterval ETV
vector 18 DatabaseNetwork.user[18] AccessInterval ETV
vector 19 DatabaseNetwork.user[19] AccessInterval ETV
vector 20 DatabaseNetwork.user[20] AccessInterval ETV
vector 21 DatabaseNetwork.user[21] AccessInterval ETV
vector 22 DatabaseNetwork.user[22] AccessInterval ETV
vector 23 DatabaseNetwork.user[23] AccessInterval ETV
vector 24 DatabaseNetwork.user[24] AccessInterval ETV
vector 25 DatabaseNetwork.user[25] AccessInterval ETV
vector 26 DatabaseNetwork.user[26] AccessInterval ETV
vector 27 DatabaseNetwork.user[27] AccessInterval ETV
vector 28 DatabaseNetwork.user[28] AccessInterval ETV
vector 29 DatabaseNetwork.user[29] AccessInterval ETV
vector 30 DatabaseNetwork.user[30] AccessInterval ETV
vector 31 DatabaseNetwork.user[31] AccessInterval ETV
vector 32 DatabaseNetwork.user[32] AccessInterval ETV
vector 33 DatabaseNetwork.user[33] AccessInterval ETV
vector 34 DatabaseNetwork.user[34] AccessInterval ETV
vector 35 DatabaseNetwork.user[35] AccessInterval ETV
vector 36 DatabaseNetwork.user[36] AccessInterval ETV
vector 37 DatabaseNetwork.user[37] AccessInterval ETV
vector 38 DatabaseNetwork.user[38] AccessInterval ETV
vector 39 DatabaseNetwork.user[39] AccessInterval ETV
vector 40 DatabaseNetwork.user[40] AccessInterval ETV
vector 41 DatabaseNetwork.user[41] AccessInterval ETV
vector 42 DatabaseNetwork.user[42] AccessInterval ETV
vector 43 DatabaseNetwork.user[43] AccessInterval ETV
vector 44 DatabaseNetwork.user[44] AccessInterval ETV
vector 45 DatabaseNetwork.user[45] AccessInterval ETV
vector 46 DatabaseNetwork.user[46] AccessInterval ETV
vector 47 DatabaseNetwork.user[47] AccessInterval ETV
vector 48 DatabaseNetwork.user[48] AccessInterval ETV
vector 49 DatabaseNetwork.user[49] AccessInterval ETV
vector 50 DatabaseNetwork.user[50] AccessInterval ETV
vector 51 DatabaseNetwork.user[51] AccessInterval ETV
vector 52 DatabaseNetwork.user[52] AccessInterval ETV
vector 53 DatabaseNetwork.user[53] AccessInterval ETV
vector 54 DatabaseNetwork.user[54] AccessInterval ETV
vector 55 DatabaseNetwork.user[55] AccessInterval ETV
vector 56 DatabaseNetwork.user[56] AccessInterval ETV
vector 57 DatabaseNetwork.user[57] AccessInterval ETV
vector 58 DatabaseNetwork.user[58] AccessInterval ETV
vector 59 DatabaseNetwork.user[59] AccessInterval ETV
vector 60 DatabaseNetwork.user[60] AccessInterval ETV
vector 61 DatabaseNetwork.user[61] AccessInterval ETV
vector 62 DatabaseNetwork.user[62] AccessInterval ETV
vector 63 DatabaseNetwork.user[63] AccessInterval ETV
vector 64 DatabaseNetwork.user[64] AccessInterval ETV
vector 65 DatabaseNetwork.user[65] AccessInterval ETV
vector 66 DatabaseNetwork.user[66] AccessInterval ETV
vector 67 DatabaseNetwork.user[67] AccessInterval ETV
vector 68 DatabaseNetwork.user[68] AccessInterval ETV
vector 69 DatabaseNetwork.user[69] AccessInterval ETV
vector 70 DatabaseNetwork.user[70] AccessInterval ETV
vector 71 DatabaseNetwork.user[71] AccessInterval ETV
vector 72 DatabaseNetwork.user[72] AccessInterval ETV
vector 73 DatabaseNetwork.user[73] AccessInterval ETV
vector 74 DatabaseNetwork.user[74] AccessInterval ETV
vector 75 DatabaseNetwork.user[2] ReadAccesses ETV
vector 76 DatabaseNetwork.user[2] WaitTime ETV
vector 77 DatabaseNetwork.user[42] ReadAccesses ETV
vector 78 DatabaseNetwork.user[42] WaitTime ETV
vector 79 DatabaseNetwork.user[38] WriteAccesses ETV
vector 80 DatabaseNetwork.user[38] WaitTime ETV
vector 81 DatabaseNetwork.user[46] ReadAccesses ETV
vector 82 DatabaseNetwork.user[46] WaitTime ETV
vector 83 DatabaseNetwork.user[54] ReadAccesses ETV
vector 84 DatabaseNetwork.user[54] WaitTime ETV
vector 85 DatabaseNetwork.user[45] ReadAccesses ETV
vector 86 DatabaseNetwork.user[15] ReadAccesses ETV
vector 87 DatabaseNetwork.user[45] WaitTime ETV
vector 88 DatabaseNetwork.user[15] WaitTime ETV
vector 89 DatabaseNetwork.user[48] ReadAccesses ETV
vector 90 DatabaseNetwork.user[48] WaitTime ETV
vector 91 DatabaseNetwork.user[24] ReadAccesses ETV
vector 92 DatabaseNetwork.user[24] WaitTime ETV
vector 93 DatabaseNetwork.user[11] ReadAccesses ETV
vector 94 DatabaseNetwork.user[24] WriteAccesses ETV
vector 95 DatabaseNetwork.user[11] WaitTime ETV
vector 96 DatabaseNetwork.user[59] ReadAccesses ETV
vector 97 DatabaseNetwork.user[59] WaitTime ETV
vector 98 DatabaseNetwork.user[37] ReadAccesses ETV
vector 99 DatabaseNetwork.user[37] WaitTime ETV
vector 100 DatabaseNetwork.user[47] ReadAccesses ETV
vector 101 DatabaseNetwork.user[28] ReadAccesses ETV
vector 102 DatabaseNetwork.user[1] ReadAccesses ETV
vector 103 DatabaseNetwork.user[47] WaitTime ETV
vector 104 DatabaseNetwork.user[28] WaitTime ETV
vector 105 DatabaseNetwork.user[1] WaitTime ETV
vector 106 DatabaseNetwork.user[62] ReadAccesses ETV
vector 107 DatabaseNetwork.user[12] WriteAccesses ETV
vector 108 DatabaseNetwork.user[62] WaitTime ETV
vector 109 DatabaseNetwork.user[12] WaitTime ETV
vector 110 DatabaseNetwork.user[56] ReadAccesses ETV
vector 111 DatabaseNetwork.user[53] WriteAccesses ETV
vector 112 DatabaseNetwork.user[56] WaitTime ETV
vector 113 DatabaseNetwork.user[53] WaitTime ETV
vector 114 DatabaseNetwork.user[52] ReadAccesses ETV
vector 115 DatabaseNetwork.user[52] WaitTime ETV
vector 116 DatabaseNetwork.user[31] WriteAccesses ETV
vector 117 DatabaseNetwork.user[31] WaitTime ETV
vector 118 DatabaseNetwork.user[18] WriteAccesses ETV
vector 119 DatabaseNetwork.user[18] WaitTime ETV
vector 120 DatabaseNetwork.user[43] ReadAccesses ETV
vector 121 DatabaseNetwork.user[31] ReadAccesses ETV
vector 122 DatabaseNetwork.user[43] WaitTime ETV
vector 123 DatabaseNetwork.user[41] ReadAccesses ETV
vector 124 DatabaseNetwork.user[16] ReadAccesses ETV
vector 125 DatabaseNetwork.user[41] WaitTime ETV
vector 126 DatabaseNetwork.user[16] WaitTime ETV
vector 127 DatabaseNetwork.user[9] ReadAccesses ETV
vector 128 DatabaseNetwork.user[9] WaitTime ETV
vector 129 DatabaseNetwork.user[10] ReadAccesses ETV
vector 130 DatabaseNetwork.user[10] WaitTime ETV
vector 131 DatabaseNetwork.user[58] ReadAccesses ETV
vector 132 DatabaseNetwork.user[58] WaitTime ETV
vector 133 DatabaseNetwork.user[61] WriteAccesses ETV
vector 134 DatabaseNetwork.user[61] WaitTime ETV
vector 135 DatabaseNetwork.user[70] ReadAccesses ETV
vector 136 DatabaseNetwork.user[70] WaitTime ETV
vector 137 DatabaseNetwork.user[38] ReadAccesses ETV
vector 138 DatabaseNetwork.user[35] ReadAccesses ETV
vector 139 DatabaseNetwork.user[35] WaitTime ETV
vector 140 DatabaseNetwork.user[8] WriteAccesses ETV
vector 141 DatabaseNetwork.user[8] WaitTime ETV
vector 142 DatabaseNetwork.user[44] ReadAccesses ETV
vector 143 DatabaseNetwork.user[44] WaitTime ETV
vector 144 DatabaseNetwork.user[6] ReadAccesses ETV
vector 145 DatabaseNetwork.user[0] ReadAccesses ETV
vector 146 DatabaseNetwork.user[6] WaitTime ETV
vector 147 DatabaseNetwork.user[0] WaitTime ETV
vector 148 DatabaseNetwork.user[60] ReadAccesses ETV
vector 149 DatabaseNetwork.user[63] ReadAccesses ETV
vector 150 DatabaseNetwork.user[60] WaitTime ETV
vector 151 DatabaseNetwork.user[63] WaitTime ETV
vector 152 DatabaseNetwork.user[66] ReadAccesses ETV
vector 153 DatabaseNetwork.user[7] ReadAccesses ETV
vector 154 DatabaseNetwork.user[17] ReadAccesses ETV
vector 155 DatabaseNetwork.user[66] WaitTime ETV
vector 156 DatabaseNetwork.user[7] WaitTime ETV
vector 157 DatabaseNetwork.user[17] WaitTime ETV
vector 158 DatabaseNetwork.user[34] ReadAccesses ETV
vector 159 DatabaseNetwork.user[49] ReadAccesses ETV
vector 160 DatabaseNetwork.user[34] WaitTime ETV
vector 161 DatabaseNetwork.user[49] WaitTime ETV
vector 162 DatabaseNetwork.user[25] ReadAccesses ETV
vector 163 DatabaseNetwork.user[25] WaitTime ETV
vector 164 DatabaseNetwork.user[68] ReadAccesses ETV
vector 165 DatabaseNetwork.user[40] ReadAccesses ETV
vector 166 DatabaseNetwork.user[68] WaitTime ETV
vector 167 DatabaseNetwork.user[40] WaitTime ETV
vector 168 DatabaseNetwork.user[26] ReadAccesses ETV
vector 169 DatabaseNetwork.user[25] WriteAccesses ETV
vector 170 DatabaseNetwork.user[26] WaitTime ETV
vector 171 DatabaseNetwork.user[8] ReadAccesses ETV
vector 172 DatabaseNetwork.user[22] ReadAccesses ETV
vector 173 DatabaseNetwork.user[22] WaitTime ETV
vector 174 DatabaseNetwork.user[53] ReadAccesses ETV
vector 175 DatabaseNetwork.user[33] ReadAccesses ETV
vector 176 DatabaseNetwork.user[33] WaitTime ETV
vector 177 DatabaseNetwork.user[4] WriteAccesses ETV
vector 178 DatabaseNetwork.user[4] WaitTime ETV
vector 179 DatabaseNetwork.user[51] ReadAccesses ETV
vector 180 DatabaseNetwork.user[51] WaitTime ETV
vector 181 DatabaseNetwork.user[57] ReadAccesses ETV
vector 182 DatabaseNetwork.user[57] WaitTime ETV
vector 183 DatabaseNetwork.user[74] ReadAccesses ETV
vector 184 DatabaseNetwork.user[74] WaitTime ETV
vector 185 DatabaseNetwork.user[27] ReadAccesses ETV
vector 186 DatabaseNetwork.user[27] WaitTime ETV
vector 187 DatabaseNetwork.user[50] ReadAccesses ETV
vector 188 DatabaseNetwork.user[50] WaitTime ETV
vector 189 DatabaseNetwork.user[71] ReadAccesses ETV
vector 190 DatabaseNetwork.user[71] WaitTime ETV
vector 191 DatabaseNetwork.user[14] WriteAccesses ETV
vector 192 DatabaseNetwork.user[20] WriteAccesses ETV
vector 193 DatabaseNetwork.user[14] WaitTime ETV
vector 194 DatabaseNetwork.user[28] WriteAccesses ETV
vector 195 DatabaseNetwork.user[20] WaitTime ETV
vector 196 DatabaseNetwork.user[19] ReadAccesses ETV
vector 197 DatabaseNetwork.user[19] WaitTime ETV
vector 198 DatabaseNetwork.user[64] ReadAccesses ETV
vector 199 DatabaseNetwork.user[64] WaitTime ETV
vector 200 DatabaseNetwork.user[65] ReadAccesses ETV
vector 201 DatabaseNetwork.user[65] WaitTime ETV
vector 202 DatabaseNetwork.user[69] ReadAccesses ETV
vector 203 DatabaseNetwork.user[69] WaitTime ETV
vector 204 DatabaseNetwork.user[23] ReadAccesses ETV
vector 205 DatabaseNetwork.user[23] WaitTime ETV
vector 206 DatabaseNetwork.user[51] WriteAccesses ETV
vector 207 DatabaseNetwork.user[13] ReadAccesses ETV
vector 208 DatabaseNetwork.user[13] WaitTime ETV
vector 209 DatabaseNetwork.user[14] ReadAccesses ETV
vector 210 DatabaseNetwork.user[61] ReadAccesses ETV
vector 211 DatabaseNetwork.user[29] ReadAccesses ETV
vector 212 DatabaseNetwork.user[29] WaitTime ETV
vector 213 DatabaseNetwork.user[18] ReadAccesses ETV
vector 214 DatabaseNetwork.user[55] ReadAccesses ETV
vector 215 DatabaseNetwork.user[55] WaitTime ETV
vector 216 DatabaseNetwork.user[30] ReadAccesses ETV
vector 217 DatabaseNetwork.user[30] WaitTime ETV
vector 218 DatabaseNetwork.user[67] ReadAccesses ETV
vector 219 DatabaseNetwork.user[72] ReadAccesses ETV
vector 220 DatabaseNetwork.user[67] WaitTime ETV
vector 221 DatabaseNetwork.user[72] WaitTime ETV
vector 222 DatabaseNetwork.user[21] ReadAccesses ETV
vector 223 DatabaseNetwork.user[21] WaitTime ETV
vector 224 DatabaseNetwork.user[35] WriteAccesses ETV
vector 225 DatabaseNetwork.user[36] WriteAccesses ETV
vector 226 DatabaseNetwork.user[36] WaitTime ETV
vector 227 DatabaseNetwork.user[71] WriteAccesses ETV
vector 228 DatabaseNetwork.user[1] WriteAccesses ETV
vector 229 DatabaseNetwork.user[32] ReadAccesses ETV
vector 230 DatabaseNetwork.user[32] WaitTime ETV
vector 231 DatabaseNetwork.user[36] ReadAccesses ETV
vector 232 DatabaseNetwork.user[32] WriteAccesses ETV
vector 233 DatabaseNetwork.user[20] ReadAccesses ETV
vector 234 DatabaseNetwork.user[69] WriteAccesses ETV
vector 235 DatabaseNetwork.user[26] WriteAccesses ETV
vector 236 DatabaseNetwork.user[3] ReadAccesses ETV
vector 237 DatabaseNetwork.user[4] ReadAccesses ETV
vector 238 DatabaseNetwork.user[3] WaitTime ETV
vector 239 DatabaseNetwork.user[17] WriteAccesses ETV
vector 240 DatabaseNetwork.user[58] WriteAccesses ETV
vector 241 DatabaseNetwork.user[5] ReadAccesses ETV
vector 242 DatabaseNetwork.user[5] WaitTime ETV
vector 243 DatabaseNetwork.user[23] WriteAccesses ETV
vector 244 DatabaseNetwork.user[45] WriteAccesses ETV
vector 245 DatabaseNetwork.user[39] ReadAccesses ETV
vector 246 DatabaseNetwork.user[39] WaitTime ETV
vector 247 DatabaseNetwork.user[60] WriteAccesses ETV
vector 248 DatabaseNetwork.user[56] WriteAccesses ETV
vector 249 DatabaseNetwork.user[46] WriteAccesses ETV
vector 250 DatabaseNetwork.user[43] WriteAccesses ETV
vector 251 DatabaseNetwork.user[44] WriteAccesses ETV
vector 252 DatabaseNetwork.user[50] WriteAccesses ETV
vector 253 DatabaseNetwork.user[39] WriteAccesses ETV
vector 254 DatabaseNetwork.user[12] ReadAccesses ETV
vector 255 DatabaseNetwork.user[73] ReadAccesses ETV
vector 256 DatabaseNetwork.user[73] WaitTime ETV
vector 257 DatabaseNetwork.user[11] WriteAccesses ETV
vector 258 DatabaseNetwork.user[67] WriteAccesses ETV
vector 259 DatabaseNetwork.user[47] WriteAccesses ETV
vector 260 DatabaseNetwork.user[15] WriteAccesses ETV
vector 261 DatabaseNetwork.user[10] WriteAccesses ETV
vector 262 DatabaseNetwork.user[37] WriteAccesses ETV
vector 263 DatabaseNetwork.user[33] WriteAccesses ETV
vector 264 DatabaseNetwork.user[42] WriteAccesses ETV
vector 265 DatabaseNetwork.user[59] WriteAccesses ETV
vector 266 DatabaseNetwork.user[40] WriteAccesses ETV
vector 267 DatabaseNetwork.user[65] WriteAccesses ETV
vector 268 DatabaseNetwork.user[49] WriteAccesses ETV
vector 269 DatabaseNetwork.user[6] WriteAccesses ETV
vector 270 DatabaseNetwork.user[41] WriteAccesses ETV
vector 271 DatabaseNetwork.user[57] WriteAccesses ETV
vector 272 DatabaseNetwork.user[13] WriteAccesses ETV
vector 273 DatabaseNetwork.user[72] WriteAccesses ETV
vector 274 DatabaseNetwork.user[21] WriteAccesses ETV
vector 275 DatabaseNetwork.user[19] WriteAccesses ETV
vector 276 DatabaseNetwork.user[52] WriteAccesses ETV
vector 277 DatabaseNetwork.user[73] WriteAccesses ETV
vector 278 DatabaseNetwork.user[62] WriteAccesses ETV
vector 279 DatabaseNetwork.user[34] WriteAccesses ETV
vector 280 DatabaseNetwork.user[16] WriteAccesses ETV
vector 281 DatabaseNetwork.user[29] WriteAccesses ETV
vector 282 DatabaseNetwork.user[48] WriteAccesses ETV
vector 283 DatabaseNetwork.user[64] WriteAccesses ETV
vector 284 DatabaseNetwork.user[30] WriteAccesses ETV
vector 285 DatabaseNetwork.user[22] WriteAccesses ETV
vector 286 DatabaseNetwork.user[3] WriteAccesses ETV
vector 287 DatabaseNetwork.user[9] WriteAccesses ETV
vector 288 DatabaseNetwork.user[74] WriteAccesses ETV
vector 289 DatabaseNetwork.user[5] WriteAccesses ETV
vector 290 DatabaseNetwork.user[63] WriteAccesses ETV
vector 291 DatabaseNetwork.user[54] WriteAccesses ETV
vector 292 DatabaseNetwork.user[55] WriteAccesses ETV
vector 293 DatabaseNetwork.user[2] WriteAccesses ETV
vector 294 DatabaseNetwork.user[66] WriteAccesses ETV
vector 295 DatabaseNetwork.user[0] WriteAccesses ETV
vector 296 DatabaseNetwork.user[70] WriteAccesses ETV
vector 297 DatabaseNetwork.user[7] WriteAccesses ETV
vector 298 DatabaseNetwork.user[68] WriteAccesses ETV
vector 299 DatabaseNetwork.user[27] WriteAccesses ETV
0	16858 20960 0 149559 0 9966.068822359832 500 0.06945194400822 167.28435403601 10051.093183506 420466.35851117
1	37818 21455 0 149725 0 9975.701311171802 511 0.00333296896876 110.51795831558 10029.774871256 378411.92686931
2	59273 20964 0 150051 0 9997.790436321877 500 0.0076654899103054 132.3511315394 10014.129920937 384899.98869318
3	80237 21135 0 149697 0 9974.164012112043 503 0.012647120944525 130.35664169942 10003.364544376 386633.15653874
4	101372 21748 0 149433 0 9959.169208843485 519 0.056624335893405 142.6103868173 10037.777855646 384287.61793382
5	123120 21603 0 149795 0 9982.828774400173 515 0.0017164778772524 141.40185892294 10029.467984716 391821.13440236
6	144723 20207 0 150097 0 9999.412247856082 483 0.17152501880637 135.79865929273 10001.224193398 391301.14514372
7	164930 20080 0 149405 0 9957.734461185794 478 0.047227144082839 146.09362105231 10019.255355072 429601.30330572
8	185010 19836 0 150003 0 9995.877918647072 473 0.0051513428502862 161.37002327813 10006.653919526 401434.40073894
9	204846 20027 0 149623 0 9968.348865065625 477 0.031367939748205 127.64586166721 10019.595658328 411112.86290654
10	224873 20467 0 149823 0 9985.081605741508 477 0.04669413678237 104.49769281333 10058.134780247 382819.53990024
11	245340 22623 0 149465 0 9960.860312342325 527 0.039520495118596 160.4748314804 10007.163636034 415658.95056161
12	267963 19408 0 149719 0 9975.262520220994 452 0.037488468889348 117.93096968982 10048.863620579 402025.23384616
13	287371 22261 0 150021 0 9996.587144925954 519 0.069549923760241 106.78566387699 10013.884608057 363539.26289081
14	309632 20650 0 149793 0 9982.753821455777 481 0.016503514962916 125.35780020079 10002.357539319 402693.69303177
15	330282 21372 0 150109 0 9999.751405486636 498 0.07665121509683 153.28079447788 10001.1783019 423801.95227483
16	351654 19710 0 150011 0 9996.249259506671 460 0.16317963508661 167.21643629574 10018.933452215 458738.8334395
17	371364 23341 0 150089 0 9999.171808417763 544 0.061805036956288 130.43544286138 10017.271532371 362097.96117788
18	394705 20823 0 149601 0 9967.686620189079 485 0.079125096224148 157.16857213283 10015.327722427 408808.71315288
19	415528 20706 0 149341 0 9952.208919801272 483 0.039111096621174 111.81214012089 10013.895034123 419537.41772036
20	436234 23063 0 149925 0 9990.974727537897 537 0.0053086936883724 119.91755358567 10043.349337649 390592.8986155
21	459297 22141 0 149533 0 9964.59414935956 517 0.026364060843928 161.96480286415 10000.04798777 393925.19426307
22	481438 21032 0 150059 0 9998.161395303294 489 0.018664294107461 137.82308635187 10008.715767125 433766.86521658
23	502470 21976 0 149409 0 9958.032915499827 511 0.043111467312816 127.06900469646 10033.415830605 382213.05228799
24	524446 22292 0 149917 0 9990.784421486093 519 0.019831003843185 126.27356201786 10040.813328262 392685.1580982
25	546738 20305 0 149789 0 9982.296073356856 473 0.022023203707472 212.20389761797 10019.761383871 426636.75229363
26	567043 22501 0 149961 0 9993.703343376749 524 0.0088188586538708 122.08021948353 10014.948910268 368711.1487077
27	589544 21425 0 149855 0 9987.080560111226 498 0.018964368996917 132.35284906811 10001.841403283 420024.9241603
28	610969 20347 0 149657 0 9971.862651480388 474 0.027371329941522 176.83787970008 10032.212518275 443649.90443345
29	631316 22305 0 149769 0 9979.80104085976 519 0.026308471552711 139.3839277782 10079.889317808 421326.42900784
30	653621 20961 0 149889 0 9988.378110203817 488 0.036069492520938 105.25435520783 10056.829014102 399045.09526927
31	674582 22084 0 149877 0 9988.196710110194 515 0.0073829647269744 120.80379877918 10048.230752618 409502.83339267
32	696666 22511 0 150061 0 9998.177478210404 524 0.027238253309215 164.90117929448 10002.151479958 412758.21645362
33	719177 20431 0 149399 0 9957.265774284215 476 0.18230198354541 136.01420278127 10016.995188679 428174.64304119
34	739608 22231 0 149829 0 9986.044260092373 518 0.013398465558235 150.44188847803 10000.022651192 396144.00891711
35	761839 21146 0 150091 0 9999.247121556869 494 0.038434208916748 138.60186056465 10001.756520829 424662.22670478
36	782985 21379 0 150067 0 9998.234443196877 498 0.018186117901086 100.15160534356 10007.116874648 379571.10073137
37	804364 20399 0 149801 0 9982.948094676111 475 0.043826295942513 152.8816958854 10101.747352105 458625.13171221
38	824763 22890 0 149837 0 9986.298932721165 533 0.0076394122154364 104.03784771339 10005.983910541 345147.114272
39	847653 20475 0 150029 0 9996.775565398914 477 0.012918024847477 134.18478856501 10020.388623385 431517.78119182
40	868128 22388 0 150037 0 9997.038164141952 522 0.070240912394579 126.17444207581 10005.990150304 402780.37932631
41	890516 21807 0 149591 0 9967.114287695067 508 0.032284365453849 134.64670505546 10015.20548592 389568.92517376
42	912323 20000 0 149581 0 9966.776018919331 466 0.042647699882912 164.08929663607 10006.839067736 433767.8018482
43	932323 22183 0 149949 0 9993.403038835785 517 0.022379811607821 176.9986966792 10018.97013536 370542.92073872
44	954506 22142 0 149997 0 9995.700333682967 516 0.063818009146647 224.92457505296 10023.127464219 423737.47049283
45	976648 20170 0 148797 0 9911.156225302017 470 0.22459397084145 163.54352892056 10029.448857929 462197.3543219
46	996818 23058 0 149937 0 9991.802223580489 537 0.12639764252039 101.85877242733 10054.063722154 369324.41371725
47	1019876 20715 0 149919 0 9990.815976938702 483 0.0014326396341336 111.54241176406 10014.43461069 409186.10474975
48	1040591 20798 0 149897 0 9988.670422573618 485 0.039163558136113 151.31301730818 10007.543399407 415002.42631739
49	1061389 21478 0 150057 0 9998.132186707085 500 0.16147749028307 149.40991654054 10001.478148143 386481.2920438
50	1082867 22265 0 149873 0 9987.883702906355 519 0.052150882189874 104.92597937872 10008.02523545 353490.40248645
51	1105132 20775 0 150081 0 9998.666578953361 484 0.039215473895625 168.38489438476 10012.360207825 426760.94500101
52	1125907 20380 0 149851 0 9987.04233928568 475 0.048675993691682 150.33317121465 10000.964519306 440639.95394987
53	1146287 21015 0 150027 0 9996.717365547421 489 0.11168081462123 132.06682763453 10036.222358896 403505.78241259
54	1167302 20902 0 150023 0 9996.686620968953 487 0.12465983194014 129.32101387899 10008.33848064 398663.68067624
55	1188204 21872 0 149865 0 9987.490987108179 509 0.029030775110773 112.74666770208 10009.293371935 387280.05463146
56	1210076 23500 0 150101 0 9999.468504804874 547 0.017267266594175 98.252692966026 10076.487751073 368836.68546373
57	1233576 21524 0 150077 0 9998.432814115406 502 0.018943841829334 122.03194168759 10032.661788902 388189.39476215
58	1255100 21391 0 149369 0 9954.91886939499 498 0.028721166579102 143.82811736867 10032.769155389 426261.82738871
59	1276491 21716 0 149963 0 9993.801802481268 505 0.027483810905502 112.12690655267 10000.124262665 402095.15557938
60	1298207 22783 0 150041 0 9997.32066312097 530 0.19366402236351 140.16403195834 10006.187307608 386930.57466935
61	1320990 21261 0 149945 0 9993.217508647316 495 0.10935606054304 140.53597349687 10016.919415648 418533.95083658
62	1342251 23194 0 149753 0 9977.831730832827 540 0.069399239436493 145.65811388582 10012.403055813 382823.0259186
63	1365445 21686 0 149993 0 9995.495945547929 505 0.032767207277404 108.09121071713 10015.730511974 394076.00125705
64	1387131 21962 0 150063 0 9998.231678910699 511 0.019158101004981 147.64279910535 10006.328750257 379773.11016528
65	1409093 20619 0 149397 0 9957.193306613884 480 0.012718570741296 141.55116943374 10001.84275609 404587.04595035
66	1429712 23653 0 149691 0 9973.760594809964 550 0.011798763812944 109.94859402559 10000.4755328 378395.33709407
67	1453365 21883 0 149689 0 9973.692076131576 510 0.099976320589572 122.36810410882 10013.212103765 393289.54604621
68	1475248 20064 0 149729 0 9976.228148213711 466 0.00040577670548762 133.28526222749 10028.689324054 441447.30531696
69	1495312 21704 0 149955 0 9993.535874539305 505 0.036592867798211 118.06282754721 10000.06071935 390392.0288681
70	1517016 22763 0 149561 0 9966.097683985486 529 0.0021999375062215 156.41567026027 10014.057123589 369357.84225689
71	1539779 20459 0 149981 0 9994.697841609172 476 0.038585047368132 107.80730403355 10003.182045761 371276.83896239
72	1560238 21354 0 149777 0 9980.600009670107 497 0.13885305496205 101.72556508154 10003.168381271 382773.3730939
73	1581592 23723 0 148641 0 9902.345755106893 552 0.02536528629968 103.62864730106 10004.716838193 376748.00236162
74	1605315 21211 0 150017 0 9996.43716521228 494 0.033381997306919 125.14444915933 10037.791829936 377393.76853318
75	1626526 12847 1 150051 0.525364736932 9997.790436321877 443 1 1 443 443
76	1639373 22153 4 150056 0.625364736932 9997.890436321877 499 0.099999999998545 0.14168071202766 49.948531698656 5.0014905575042
77	1661526 11891 5 149581 1.350304353086 9966.776018919331 410 1 1 410 410
78	1673417 20633 8 149584 1.450304353086 9966.876018919331 465 0.099999999998545 0.1679594021698 46.66832429687 4.6922256672349
79	1694050 1533 9 148969 1.65992651012 9922.823802345847 53 1 1 53 53
80	1695583 23608 12 149840 1.75992651012 9986.398932721165 532 0.099999999998545 0.19355372192194 53.485501350997 5.3961895697258
81	1719191 13997 13 149937 2.030267873818 9991.802223580489 482 1 1 482 482
82	1733188 23801 16 149940 2.130267873818 9991.902223580489 536 0.099999999998545 0.16985923389529 53.72759739805 5.3926416696539
83	1756989 13084 17 150023 2.262157529797 9996.686620968953 451 1 1 451 451
84	1770073 21609 20 150032 2.362157529797 9996.786620968953 486 0.099999999998545 0.18150117023015 48.681501170223 4.8829426747934
85	1791682 12115 21 148797 2.470338621905 9911.156225302017 417 1 1 417 417
86	1803797 12842 23 150109 2.555543458514 9999.751405486636 442 1 1 442 442
87	1816639 20835 26 148800 2.570338621905 9911.256225302017 469 0.099999999998545 0.17609595004251 46.976095950047 4.7110097836223
88	1837474 22050 28 150112 2.655543458514 9999.851405486636 497 0.099999999998545 0.17314412663836 49.900407243556 5.0219209994736
89	1859524 12814 29 149897 2.72005967253 9988.670422573618 442 1 1 442 442
90	1872338 21462 32 149904 2.82005967253 9988.770422573618 484 0.099999999998545 0.25331710350747 48.733946990734 4.9439149251666
91	1893800 13868 33 149917 2.890805482373 9990.784421486093 478 1 1 478 478
92	1907668 23022 36 149922 2.990805482373 9990.884421486093 518 0.099999999998545 0.18739575038853 52.136757208969 5.2689546002547
93	1930690 14012 37 149465 3.354807823798 9960.860312342325 483 1 1 483 483
94	1944702 1169 39 149893 3.44238948407 9988.585436594797 40 1 1 40 40
95	1945871 23288 42 149468 3.454807823798 9960.960312342325 526 0.099999999998545 0.16260456146892 52.795626337232 5.3083712660078
96	1969159 12932 45 149963 3.674209964948 9993.801802481268 445 1 1 445 445
97	1982091 22404 48 149970 3.774209964948 9993.901802481268 504 0.099999999998545 0.15773305083894 50.51509421547 5.0696422514606
98	2004495 12164 49 149801 3.895607906725 9982.948094676111 419 1 1 419 419
99	2016659 21056 52 149806 3.995607906725 9983.048094676111 474 0.099999999998545 0.19982611643991 47.740309226304 4.8354230477135
100	2037715 13008 53 149919 4.011186056206 9990.815976938702 434 1 1 434 434
101	2050723 12747 55 149657 4.077602339223 9971.862651480388 425 1 1 425 425
102	2063470 14147 57 149725 4.093357685528 9975.701311171802 470 1 1 470 470
103	2077617 21837 60 149924 4.111186056206 9990.915976938702 482 0.099999999998545 0.10000000000036 48.200000000008 4.8200000000016
104	2099454 21450 62 149662 4.177602339223 9971.962651480388 473 0.099999999998545 0.12970798175999 47.342549297915 4.7395573231639
105	2120904 23190 64 149728 4.193357685528 9975.801311171802 510 0.099999999998545 0.13959200640898 51.039592006412 5.1094859282539
106	2144094 14422 69 149753 4.506499251353 9977.831730832827 480 1 1 480 480
107	2158516 1710 71 146481 4.579425894643 9761.249069435486 57 1 1 57 57
108	2160226 24514 74 149756 4.606499251353 9977.931730832827 539 0.099999999998545 0.1953560250422 53.995356025036 5.418163976519
109	2184740 20487 76 149724 4.679425894643 9975.362520220994 451 0.099999999998545 0.15383404351724 45.153834043519 4.5236649129452
110	2205227 14756 81 150101 4.977080170111 9999.468504804874 491 1 1 491 491
111	2219983 1403 87 148415 5.016338196489 9886.850097419848 47 1 1 47 47
112	2221386 24808 90 150108 5.077080170111 9999.568504804874 546 0.099999999998545 0.19079615318105 54.867590698257 5.5322563027009
113	2246194 22199 96 150034 5.116338196489 9996.817365547421 488 0.099999999998545 0.14328861828903 48.882654425835 4.8991804501456
114	2268393 12992 97 149851 5.123978268971 9987.04233928568 433 1 1 433 433
115	2281385 21521 100 149858 5.223978268971 9987.14233928568 474 0.099999999998545 0.19959438578826 47.671782226966 4.8163286525346
116	2302906 1711 105 149877 5.981550600929 9988.196710110194 57 1 1 57 57
117	2304617 23332 108 149884 6.081550600929 9988.296710110194 514 0.099999999998545 0.15411670711819 51.49523657509 5.1636667765491
118	2327949 1613 109 143801 6.207479312421 9583.948988311894 54 1 1 54 54