file 2921177 1767628882                                         
version 3
run Lognormal-8-20260105-17:01:22-25149
attr configname Lognormal
attr datetime 20260105-17:01:22
attr datetimef 20260105-170122
attr experiment Lognormal
attr inifile omnetpp.ini
attr iterationvars "$N=50, $p=0.5"
attr iterationvarsd N=50/p=0.5
attr iterationvarsf N=50,p=0.5-
attr measurement "$N=50, $p=0.5"
attr network progetto.DatabaseNetwork
attr processid 25149
attr repetition 3
attr replication #3
attr resultdir results
attr runnumber 8
attr seedset 3
itervar N 50
itervar p 0.5
config description "Lognormal distribution (hotspots) - varia N e p"
config *.user[*].tableDistribution "\"lognormal\""
config *.user[*].lognormalM 1.5
config *.user[*].lognormalS 1.0
config *.numUsers 50
config *.user[*].readProbability 0.5
config network progetto.DatabaseNetwork
config sim-time-limit 10000s
config cpu-time-limit 3600s
config repeat 5
config seed-set 3
config output-vector-file "results/Lognormal-$N=50, $p=0.5-3.vec"
config output-scalar-file "results/Lognormal-$N=50, $p=0.5-3.sca"
config result-dir results
config **.vector-recording true
config **.scalar-recording true
config *.numTables 20
config *.user[*].lambda 0.05
config *.user[*].serviceTime 0.1s

vector 0 DatabaseNetwork.user[0] AccessInterval ETV
vector 1 DatabaseNetwork.user[1] AccessInterval ETV
vector 2 DatabaseNetwork.user[2] AccessInterval ETV
vector 3 DatabaseNetwork.user[3] AccessInterval ETV
vector 4 DatabaseNetwork.user[4] AccessInterval ETV
vector 5 DatabaseNetwork.user[5] AccessInterval ETV
vector 6 DatabaseNetwork.user[6] AccessInterval ETV
vector 7 DatabaseNetwork.user[7] AccessInterval ETV
vector 8 DatabaseNetwork.user[8] AccessInterval ETV
vector 9 DatabaseNetwork.user[9] AccessInterval ETV
vector 10 DatabaseNetwork.user[10] AccessInterval ETV
vector 11 DatabaseNetwork.user[11] AccessInterval ETV
vector 12 DatabaseNetwork.user[12] AccessInterval ETV
vector 13 DatabaseNetwork.user[13] AccessInterval ETV
vector 14 DatabaseNetwork.user[14] AccessInterval ETV
vector 15 DatabaseNetwork.user[15] AccessInterval ETV
vector 16 DatabaseNetwork.user[16] AccessInterval ETV
vector 17 DatabaseNetwork.user[17] AccessInterval ETV
vector 18 DatabaseNetwork.user[18] AccessInterval ETV
vector 19 DatabaseNetwork.user[19] AccessInterval ETV
vector 20 DatabaseNetwork.user[20] AccessInterval ETV
vector 21 DatabaseNetwork.user[21] AccessInterval ETV
vector 22 DatabaseNetwork.user[22] AccessInterval ETV
vector 23 DatabaseNetwork.user[23] AccessInterval ETV
vector 24 DatabaseNetwork.user[24] AccessInterval ETV
vector 25 DatabaseNetwork.user[25] AccessInterval ETV
vector 26 DatabaseNetwork.user[26] AccessInterval ETV
vector 27 DatabaseNetwork.user[27] AccessInterval ETV
vector 28 DatabaseNetwork.user[28] AccessInterval ETV
vector 29 DatabaseNetwork.user[29] AccessInterval ETV
vector 30 DatabaseNetwork.user[30] AccessInterval ETV
vector 31 DatabaseNetwork.user[31] AccessInterval ETV
vector 32 DatabaseNetwork.user[32] AccessInterval ETV
vector 33 DatabaseNetwork.user[33] AccessInterval ETV
vector 34 DatabaseNetwork.user[34] AccessInterval ETV
vector 35 DatabaseNetwork.user[35] AccessInterval ETV
vector 36 DatabaseNetwork.user[36] AccessInterval ETV
vector 37 DatabaseNetwork.user[37] AccessInterval ETV
vector 38 DatabaseNetwork.user[38] AccessInterval ETV
vector 39 DatabaseNetwork.user[39] AccessInterval ETV
vector 40 DatabaseNetwork.user[40] AccessInterval ETV
vector 41 DatabaseNetwork.user[41] AccessInterval ETV
vector 42 DatabaseNetwork.user[42] AccessInterval ETV
vector 43 DatabaseNetwork.user[43] AccessInterval ETV
vector 44 DatabaseNetwork.user[44] AccessInterval ETV
vector 45 DatabaseNetwork.user[45] AccessInterval ETV
vector 46 DatabaseNetwork.user[46] AccessInterval ETV
vector 47 DatabaseNetwork.user[47] AccessInterval ETV
vector 48 DatabaseNetwork.user[48] AccessInterval ETV
vector 49 DatabaseNetwork.user[49] AccessInterval ETV
vector 50 DatabaseNetwork.user[11] ReadAccesses ETV
vector 51 DatabaseNetwork.user[11] WaitTime ETV
vector 52 DatabaseNetwork.user[32] ReadAccesses ETV
vector 53 DatabaseNetwork.user[32] WaitTime ETV
vector 54 DatabaseNetwork.user[20] WriteAccesses ETV
vector 55 DatabaseNetwork.user[20] WaitTime ETV
vector 56 DatabaseNetwork.user[13] WriteAccesses ETV
vector 57 DatabaseNetwork.user[13] WaitTime ETV
vector 58 DatabaseNetwork.user[16] ReadAccesses ETV
vector 59 DatabaseNetwork.user[16] WaitTime ETV
vector 60 DatabaseNetwork.user[1] WriteAccesses ETV
vector 61 DatabaseNetwork.user[1] WaitTime ETV
vector 62 DatabaseNetwork.user[17] ReadAccesses ETV
vector 63 DatabaseNetwork.user[17] WaitTime ETV
vector 64 DatabaseNetwork.user[5] ReadAccesses ETV
vector 65 DatabaseNetwork.user[12] ReadAccesses ETV
vector 66 DatabaseNetwork.user[5] WaitTime ETV
vector 67 DatabaseNetwork.user[12] WaitTime ETV
vector 68 DatabaseNetwork.user[21] WriteAccesses ETV
vector 69 DatabaseNetwork.user[21] WaitTime ETV
vector 70 DatabaseNetwork.user[46] ReadAccesses ETV
vector 71 DatabaseNetwork.user[46] WaitTime ETV
vector 72 DatabaseNetwork.user[20] ReadAccesses ETV
vector 73 DatabaseNetwork.user[14] WriteAccesses ETV
vector 74 DatabaseNetwork.user[14] WaitTime ETV
vector 75 DatabaseNetwork.user[25] ReadAccesses ETV
vector 76 DatabaseNetwork.user[25] WaitTime ETV
vector 77 DatabaseNetwork.user[15] WriteAccesses ETV
vector 78 DatabaseNetwork.user[15] WaitTime ETV
vector 79 DatabaseNetwork.user[36] WriteAccesses ETV
vector 80 DatabaseNetwork.user[36] WaitTime ETV
vector 81 DatabaseNetwork.user[45] ReadAccesses ETV
vector 82 DatabaseNetwork.user[26] ReadAccesses ETV
vector 83 DatabaseNetwork.user[45] WaitTime ETV
vector 84 DatabaseNetwork.user[26] WaitTime ETV
vector 85 DatabaseNetwork.user[40] ReadAccesses ETV
vector 86 DatabaseNetwork.user[40] WaitTime ETV
vector 87 DatabaseNetwork.user[4] WriteAccesses ETV
vector 88 DatabaseNetwork.user[4] WaitTime ETV
vector 89 DatabaseNetwork.user[41] WriteAccesses ETV
vector 90 DatabaseNetwork.user[41] WaitTime ETV
vector 91 DatabaseNetwork.user[27] WriteAccesses ETV
vector 92 DatabaseNetwork.user[27] WaitTime ETV
vector 93 DatabaseNetwork.user[37] WriteAccesses ETV
vector 94 DatabaseNetwork.user[37] WaitTime ETV
vector 95 DatabaseNetwork.user[38] ReadAccesses ETV
vector 96 DatabaseNetwork.user[38] WaitTime ETV
vector 97 DatabaseNetwork.user[9] ReadAccesses ETV
vector 98 DatabaseNetwork.user[9] WaitTime ETV
vector 99 DatabaseNetwork.user[44] ReadAccesses ETV
vector 100 DatabaseNetwork.user[18] ReadAccesses ETV
vector 101 DatabaseNetwork.user[44] WaitTime ETV
vector 102 DatabaseNetwork.user[18] WaitTime ETV
vector 103 DatabaseNetwork.user[23] WriteAccesses ETV
vector 104 DatabaseNetwork.user[16] WriteAccesses ETV
vector 105 DatabaseNetwork.user[47] WriteAccesses ETV
vector 106 DatabaseNetwork.user[23] WaitTime ETV
vector 107 DatabaseNetwork.user[22] WriteAccesses ETV
vector 108 DatabaseNetwork.user[22] WaitTime ETV
vector 109 DatabaseNetwork.user[47] WaitTime ETV
vector 110 DatabaseNetwork.user[46] WriteAccesses ETV
vector 111 DatabaseNetwork.user[18] WriteAccesses ETV
vector 112 DatabaseNetwork.user[29] WriteAccesses ETV
vector 113 DatabaseNetwork.user[29] WaitTime ETV
vector 114 DatabaseNetwork.user[40] WriteAccesses ETV
vector 115 DatabaseNetwork.user[6] ReadAccesses ETV
vector 116 DatabaseNetwork.user[6] WaitTime ETV
vector 117 DatabaseNetwork.user[48] ReadAccesses ETV
vector 118 DatabaseNetwork.user[48] WaitTime ETV
vector 119 DatabaseNetwork.user[0] WriteAccesses ETV
vector 120 DatabaseNetwork.user[39] ReadAccesses ETV
vector 121 DatabaseNetwork.user[0] WaitTime ETV
vector 122 DatabaseNetwork.user[39] WaitTime ETV
vector 123 DatabaseNetwork.user[34] ReadAccesses ETV
vector 124 DatabaseNetwork.user[34] WaitTime ETV
vector 125 DatabaseNetwork.user[7] WriteAccesses ETV
vector 126 DatabaseNetwork.user[7] WaitTime ETV
vector 127 DatabaseNetwork.user[7] ReadAccesses ETV
vector 128 DatabaseNetwork.user[43] WriteAccesses ETV
vector 129 DatabaseNetwork.user[43] WaitTime ETV
vector 130 DatabaseNetwork.user[30] ReadAccesses ETV
vector 131 DatabaseNetwork.user[30] WaitTime ETV
vector 132 DatabaseNetwork.user[17] WriteAccesses ETV
vector 133 DatabaseNetwork.user[37] ReadAccesses ETV
vector 134 DatabaseNetwork.user[15] ReadAccesses ETV
vector 135 DatabaseNetwork.user[41] ReadAccesses ETV
vector 136 DatabaseNetwork.user[24] WriteAccesses ETV
vector 137 DatabaseNetwork.user[30] WriteAccesses ETV
vector 138 DatabaseNetwork.user[24] WaitTime ETV
vector 139 DatabaseNetwork.user[26] WriteAccesses ETV
vector 140 DatabaseNetwork.user[5] WriteAccesses ETV
vector 141 DatabaseNetwork.user[28] WriteAccesses ETV
vector 142 DatabaseNetwork.user[28] WaitTime ETV
vector 143 DatabaseNetwork.user[42] WriteAccesses ETV
vector 144 DatabaseNetwork.user[42] WaitTime ETV
vector 145 DatabaseNetwork.user[19] WriteAccesses ETV
vector 146 DatabaseNetwork.user[19] WaitTime ETV
vector 147 DatabaseNetwork.user[2] ReadAccesses ETV
vector 148 DatabaseNetwork.user[2] WaitTime ETV
vector 149 DatabaseNetwork.user[38] WriteAccesses ETV
vector 150 DatabaseNetwork.user[49] WriteAccesses ETV
vector 151 DatabaseNetwork.user[49] WaitTime ETV
vector 152 DatabaseNetwork.user[33] ReadAccesses ETV
vector 153 DatabaseNetwork.user[33] WaitTime ETV
vector 154 DatabaseNetwork.user[12] WriteAccesses ETV
vector 155 DatabaseNetwork.user[33] WriteAccesses ETV
vector 156 DatabaseNetwork.user[48] WriteAccesses ETV
vector 157 DatabaseNetwork.user[19] ReadAccesses ETV
vector 158 DatabaseNetwork.user[1] ReadAccesses ETV
vector 159 DatabaseNetwork.user[13] ReadAccesses ETV
vector 160 DatabaseNetwork.user[2] WriteAccesses ETV
vector 161 DatabaseNetwork.user[3] WriteAccesses ETV
vector 162 DatabaseNetwork.user[3] WaitTime ETV
vector 163 DatabaseNetwork.user[36] ReadAccesses ETV
vector 164 DatabaseNetwork.user[44] WriteAccesses ETV
vector 165 DatabaseNetwork.user[49] ReadAccesses ETV
vector 166 DatabaseNetwork.user[25] WriteAccesses ETV
vector 167 DatabaseNetwork.user[0] ReadAccesses ETV
vector 168 DatabaseNetwork.user[45] WriteAccesses ETV
vector 169 DatabaseNetwork.user[14] ReadAccesses ETV
vector 170 DatabaseNetwork.user[8] ReadAccesses ETV
vector 171 DatabaseNetwork.user[8] WaitTime ETV
vector 172 DatabaseNetwork.user[10] WriteAccesses ETV
vector 173 DatabaseNetwork.user[10] WaitTime ETV
vector 174 DatabaseNetwork.user[3] ReadAccesses ETV
vector 175 DatabaseNetwork.user[31] WriteAccesses ETV
vector 176 DatabaseNetwork.user[31] WaitTime ETV
vector 177 DatabaseNetwork.user[27] ReadAccesses ETV
vector 178 DatabaseNetwork.user[22] ReadAccesses ETV
vector 179 DatabaseNetwork.user[32] WriteAccesses ETV
vector 180 DatabaseNetwork.user[6] WriteAccesses ETV
vector 181 DatabaseNetwork.user[29] ReadAccesses ETV
vector 182 DatabaseNetwork.user[43] ReadAccesses ETV
vector 183 DatabaseNetwork.user[23] ReadAccesses ETV
vector 184 DatabaseNetwork.user[24] ReadAccesses ETV
vector 185 DatabaseNetwork.user[31] ReadAccesses ETV
vector 186 DatabaseNetwork.user[28] ReadAccesses ETV
vector 187 DatabaseNetwork.user[35] WriteAccesses ETV
vector 188 DatabaseNetwork.user[35] WaitTime ETV
vector 189 DatabaseNetwork.user[42] ReadAccesses ETV
vector 190 DatabaseNetwork.user[39] WriteAccesses ETV
vector 191 DatabaseNetwork.user[35] ReadAccesses ETV
vector 192 DatabaseNetwork.user[4] ReadAccesses ETV
vector 193 DatabaseNetwork.user[21] ReadAccesses ETV
vector 194 DatabaseNetwork.user[9] WriteAccesses ETV
vector 195 DatabaseNetwork.user[10] ReadAccesses ETV
vector 196 DatabaseNetwork.user[47] ReadAccesses ETV
vector 197 DatabaseNetwork.user[11] WriteAccesses ETV
vector 198 DatabaseNetwork.user[8] WriteAccesses ETV
vector 199 DatabaseNetwork.user[34] WriteAccesses ETV
0	11581 21471 0 99815 0 9987.602127316908 516 0.007479047717128 123.11526786441 10045.526072871 395750.6389026
1	33052 22162 0 99651 0 9972.227242901826 533 0.10226643015829 142.88426527076 10003.718048379 364204.97718744
2	55214 19825 0 99945 0 9998.728044113561 477 0.010712593799817 122.6721385108 10016.419924069 408962.23464714
3	75039 21097 0 99925 0 9997.850736889837 508 0.0800429180904 110.92709704499 10007.345633911 384795.96542343
4	96136 20185 0 99533 0 9961.34352252844 485 0.062252596247073 120.40094958465 10014.7654703 406203.78083341
5	116321 20183 0 99357 0 9941.854728914283 486 0.019894816216929 151.20854967726 10040.919574854 452421.95571533
6	136504 21301 0 99929 0 9998.099996706859 512 0.028152853028963 225.05446074172 10013.381558753 406998.63443719
7	157805 20302 0 99869 0 9991.918063346884 489 0.15189117821864 132.97416330326 10001.927469702 400778.06059494
8	178107 20770 0 99601 0 9968.098654266964 500 0.042157302490277 128.48635673662 10038.296916539 392566.51314113
9	198877 20724 0 99525 0 9960.55149879044 498 0.063928200683529 160.10904199969 10076.598842377 448017.40443294
10	219601 20372 0 99581 0 9967.563664546412 479 0.037770127354026 105.51231843107 10013.455582788 399656.93108644
11	239973 21900 0 99173 0 9928.15334238658 514 0.038584006938171 110.1057803554 10002.197522767 395836.90421621
12	261873 20168 0 99893 0 9993.986448609278 474 0.11620934640164 127.67243282417 10003.310917609 401870.22641789
13	282041 21354 0 99901 0 9994.398231895596 501 0.045710775265521 119.80975247525 10004.965731328 392096.41808498
14	303395 22161 0 99865 0 9991.81533241574 520 0.046123408011139 124.0672332975 10003.259574735 383505.45385924
15	325556 22055 0 99765 0 9983.023330027052 518 0.054828368158694 103.73537837627 10012.71475796 367521.44168441
16	347611 21943 0 99885 0 9993.062954547904 515 0.0079108492367303 124.11314944507 10011.458726669 385992.8695706
17	369554 20243 0 99797 0 9985.382123356739 476 0.1027697477237 166.22247997431 10013.114132932 446286.25248338
18	389797 20707 0 99497 0 9956.669194622444 487 0.023148281850809 116.89816264797 10001.183698541 391517.43045509
19	410504 22421 0 99513 0 9957.872701764933 526 0.00340333292487 140.69827984347 10010.671912921 367919.31457347
20	432925 19912 0 99939 0 9998.530972670138 468 0.0084339027593333 140.86468137091 10025.910625716 437533.41851586
21	452837 21440 0 99937 0 9998.518633700562 503 0.071436328498829 119.67005059116 10002.491818753 390359.54713039
22	474277 22064 0 99751 0 9982.190186299508 518 0.036874728249892 174.14948118317 10007.054447551 412556.9044022
23	496341 22048 0 99829 0 9988.203080173327 517 0.03202188360964 137.75161133363 10010.198730123 390711.70999163
24	518389 22661 0 99705 0 9978.693861603118 532 0.0012539440833576 165.55292645892 10006.616031581 385179.21577212
25	541050 20814 0 99801 0 9985.74194701836 489 0.10359056904613 114.48913051299 10045.878008041 398187.78317834
26	561864 20052 0 99285 0 9938.107291767561 471 0.056525667606476 152.28911998209 10001.698572914 423515.91287248
27	581916 21586 0 99825 0 9987.847413494712 507 0.021574599850278 123.11030721213 10008.167690824 391231.05801567
28	603502 22399 0 99853 0 9990.868617356544 526 0.025393876907691 128.10422122619 10011.870275542 366412.28089726
29	625901 21277 0 99933 0 9998.337224885025 500 0.0015927693787653 139.30162197618 10018.148963691 412802.67511949
30	647178 22458 0 99659 0 9972.3131129696 527 0.082211788960819 149.90156177853 10008.331940248 390443.9107502
31	669636 22187 0 99813 0 9987.562962895333 521 0.037447913047065 111.13413998377 10016.203754822 377964.84482301
32	691823 21054 0 99949 0 9999.309208337551 495 0.0051995978451505 124.34164981153 10026.72197998 402500.00077032
33	712877 20373 0 99743 0 9981.895403971032 479 0.058167932903804 147.72997462308 10120.132911575 429277.62277889
34	733250 21266 0 99917 0 9996.19836025113 500 0.12711280641614 146.38021377935 10023.396230826 413218.54896372
35	754516 21713 0 99837 0 9989.306559820826 510 0.0067739716008636 112.09228510812 10037.393404709 369243.41359375
36	776229 21247 0 99725 0 9980.987295307764 500 0.058872824308969 108.41332700917 10014.642420455 377802.90488222
37	797476 20318 0 99701 0 9978.056701674447 477 0.056226943217795 123.55126937643 10057.093011877 424561.0880328
38	817794 20776 0 99847 0 9989.735408276872 488 0.013223488671316 142.43677202105 10014.020280594 433140.5111068
39	838570 20407 0 99671 0 9972.442097119032 480 0.016701133296684 176.41508272807 10007.921369154 437098.51157627
40	858977 20481 0 99307 0 9939.246448423195 481 0.023872989768715 138.54582606471 10000.788663739 451073.58621549
41	879458 21436 0 99919 0 9996.201016671951 504 0.009578603778767 118.41540359098 10007.813362492 384836.13278014
42	900894 20610 0 99861 0 9991.200229497653 484 0.035114208175165 127.94583310069 10017.814730615 417873.15604109
43	921504 21668 0 99831 0 9988.287016457089 509 0.016473301243118 127.78509307249 10002.51570361 414550.73971497
44	943172 21347 0 99529 0 9960.694564498425 502 0.049434798978046 110.92803873653 10000.548713544 396395.52554015
45	964519 22481 0 99877 0 9992.607966157548 528 0.00093096239929842 142.02293578707 10014.657501122 387829.9241607
46	987000 21858 0 99597 0 9967.999516682089 514 0.050019981858296 131.9623142691 10000.908386649 374703.39386375
47	1008858 21288 0 99645 0 9972.084790309158 500 0.040594498554692 158.83540858549 10013.118626118 401722.4843895
48	1030146 21709 0 99953 0 9999.672982182854 510 0.016136078588728 167.5859426027 10000.251123839 433313.91294854
49	1051855 20622 0 99389 0 9944.552352569464 485 0.020363980921825 190.59601362892 10033.332377682 448035.17410565
50	1072477 7692 1 99173 0.378519642865 9928.15334238658 269 1 1 269 269
51	1080169 22590 4 99176 0.478519642865 9928.25334238658 513 0.099999999998545 0.19636712730789 51.762791337537 5.2516030117834
52	1102759 6673 5 99949 0.485482608732 9999.309208337551 233 1 1 233 233
53	1109432 21730 8 99952 0.585482608732 9999.409208337551 494 0.099999999998545 0.19370136839098 49.904260834522 5.0755995246256
54	1131162 6320 9 99939 0.606631994795 9998.530972670138 221 1 1 221 221
55	1137482 20548 12 99944 0.706631994795 9998.630972670138 467 0.099999999998545 0.19136697386602 47.080532680431 4.7729077449147
56	1158030 7615 13 99901 0.829584574702 9994.398231895596 265 1 1 265 265
57	1165645 22019 16 99904 0.929584574702 9994.498231895596 500 0.099999999998545 0.19351952350098 50.648814169635 5.1779301260291
58	1187664 7316 17 99693 1.05677835357 9976.035003607208 255 1 1 255 255
59	1194980 22615 20 99890 1.15677835357 9993.162954547904 514 0.099999999998545 0.19463334382101 51.794724057885 5.2439810558867
60	1217595 7704 21 99559 1.467008759288 9963.891354035166 269 1 1 269 269
61	1225299 23433 24 99662 1.567008759288 9972.327242901826 532 0.099999999998545 0.18956041043475 53.523803137174 5.4074519816451
62	1248732 6697 25 99797 1.964421148736 9985.382123356739 234 1 1 234 234
63	1255429 20903 28 99800 2.064421148736 9985.482123356739 475 0.099999999998545 0.18501716246828 47.818730766692 4.8346016222479
64	1276332 6765 33 99357 2.586885229816 9941.854728914283 236 1 1 236 236
65	1283097 7170 35 99893 2.684010980209 9993.986448609278 250 1 1 250 250
66	1290267 21291 38 99362 2.686885229816 9941.954728914283 485 0.099999999998545 0.18281095100519 49.120612746073 5.0144781308701
67	1311558 20865 40 99896 2.784010980209 9994.086448609278 473 0.099999999998545 0.17695897086742 47.785540819482 4.8563090892313
68	1332423 7017 41 99937 3.141736494925 9998.518633700562 244 1 1 244 244
69	1339440 22163 44 99942 3.241736494925 9998.618633700562 502 0.099999999998545 0.18172490740699 50.549721222169 5.1093048997519
70	1361603 7188 45 99597 3.412628840718 9967.999516682089 251 1 1 251 251
71	1368791 22587 48 99604 3.512628840718 9968.099516682089 513 0.099999999998545 0.19303879736617 51.849553227961 5.277190809485
72	1391378 7055 49 99297 3.686383546934 9938.973050167278 246 1 1 246 246
73	1398433 7959 53 99783 4.644767649377 9983.917765725601 277 1 1 277 277
74	1406392 22867 56 99868 4.744767649377 9991.91533241574 519 0.099999999998545 0.19343230889035 52.361455499317 5.3157085468245
75	1429259 7122 57 99801 4.856137582298 9985.74194701836 249 1 1 249 249
76	1436381 21490 60 99804 4.956137582298 9985.84194701836 488 0.099999999998545 0.18002307109305 49.042558677605 4.9431866074922
77	1457871 7086 61 99765 5.697408622634 9983.023330027052 247 1 1 247 247
78	1464957 22789 64 99768 5.797408622634 9983.123330027052 517 0.099999999998545 0.1992915514993 52.343369116967 5.3458527003292
79	1487746 7068 65 99725 6.001907866846 9980.987295307764 247 1 1 247 247
80	1494814 21934 68 99728 6.101907866846 9981.087295307764 499 0.099999999998545 0.19842997261776 50.156541653458 5.06011629024
81	1516748 7301 71 99877 6.429468674703 9992.607966157548 255 1 1 255 255
82	1524049 6678 75 98501 6.528105529747 9872.830978614041 233 1 1 233 233
83	1530727 23209 78 99882 6.529468674703 9992.707966157548 527 0.099999999998545 0.19906903760057 53.317036136877 5.4413361447406
84	1553936 20678 80 99290 6.628105529747 9938.207291767561 470 0.099999999998545 0.18705265890594 47.43260270761 4.8133466008034
85	1574614 6690 81 99307 6.668240890524 9939.246448423195 233 1 1 233 233
86	1581304 21132 84 99314 6.768240890524 9939.346448423195 480 0.099999999998545 0.19844417530203 48.645394232194 4.9754816098373
87	1602436 6850 85 99077 6.875308165935 9921.684441035035 239 1 1 239 239
88	1609286 21317 88 99536 6.975308165935 9961.44352252844 484 0.099999999998545 0.19967384048869 49.087077915752 5.025739494668
89	1630603 7401 89 99919 7.316061781284 9996.201016671951 259 1 1 259 259
90	1638004 22120 92 99924 7.416061781284 9996.301016671951 503 0.099999999998545 0.19139322980391 50.600735507443 5.1139637135383
91	1660124 7528 93 99825 8.736176800439 9987.847413494712 263 1 1 263 263
92	1667652 22305 96 99828 8.836176800439 9987.947413494712 506 0.099999999998545 0.19481776275825 50.988077297037 5.1681519098021
93	1689957 7218 97 99701 10.295355755508 9978.056701674447 252 1 1 252 252
94	1697175 20951 100 99704 10.395355755508 9978.156701674447 476 0.099999999998545 0.18896156094252 47.750475685293 4.7999715688858
95	1718126 6785 101 99847 10.726328631756 9989.735408276872 237 1 1 237 237
96	1724911 21401 104 99852 10.826328631756 9989.835408276872 487 0.099999999998545 0.17704850990776 49.204696885503 4.9982420912073
97	1746312 7818 105 99405 11.491713496228 9945.882164527505 272 1 1 272 272
98	1754130 21937 108 99528 11.591713496228 9960.65149879044 497 0.099999999998545 0.19257078348528 50.38119347125 5.1538086944706
99	1776067 6972 109 99529 11.612580851988 9960.694564498425 244 1 1 244 244
100	1783039 6985 111 99379 11.625313641091 9944.371610252121 236 1 1 236 236
101	1790024 22543 114 99532 11.712580851988 9960.794564498425 501 0.099999999998545 0.1684424867608 50.312356157481 5.0630050908349
102	1812567 21869 116 99500 11.725313641091 9956.769194622444 486 0.099999999998545 0.16665355083614 48.790190966341 4.9063395346209
103	1834436 7626 117 99829 12.072430324157 9988.203080173327 257 1 1 257 257
104	1842062 7671 119 99885 12.114107022588 9993.062954547904 259 1 1 259 259
105	1849733 7301 121 99645 12.125000917022 9972.084790309158 246 1 1 246 246
106	1857034 23254 124 99834 12.172430324157 9988.303080173327 516 0.099999999998545 0.18635197028016 52.090399325876 5.2890561398865
107	1880288 7175 125 99707 12.206777311901 9978.748886362753 242 1 1 242 242
108	1887463 23305 130 99756 12.306777311901 9982.290186299508 517 0.099999999998545 0.19674072653197 52.299553812049 5.3365672957732
109	1910768 22508 132 99650 12.314107022588 9972.184790309158 499 0.099999999998545 0.25442138348262 50.632405276145 5.1964699532938
110	1933276 7769 133 99305 12.784712320105 9939.204198243044 262 1 1 262 262
111	1941045 7416 137 99497 13.423823445539 9956.669194622444 250 1 1 250 250
112	1948461 7918 141 99933 13.570528575678 9998.337224885025 267 1 1 267 267
113	1956379 22456 144 99936 13.670528575678 9998.437224885025 499 0.099999999998545 0.19620505192506 50.21862446428 5.0746105158814
114	1978835 7309 145 99209 13.866519238685 9931.197694312656 247 1 1 247 247
115	1986144 7627 149 99115 14.300805947153 9923.980373963163 257 1 1 257 257
116	1993771 23035 152 99932 14.400805947153 9998.199996706859 511 0.099999999998545 0.18517086424822 51.508993376545 5.2202104597283
117	2016806 7824 161 99953 15.733735131438 9999.672982182854 264 1 1 264 264
118	2024630 22928 164 99956 15.833735131438 9999.772982182854 509 0.099999999998545 0.19971975715634 51.405737614055 5.2300621530406
119	2047558 8578 165 99761 16.005647817852 9982.900348044914 289 1 1 289 289
120	2056136 7541 167 99671 16.093732643296 9972.442097119032 254 1 1 254 254
121	2063677 23233 170 99822 16.105647817852 9987.702127316908 515 0.099999999998545 0.17996947536994 51.865207501763 5.2424618860383
122	2086910 21596 172 99676 16.193732643296 9972.542097119032 479 0.099999999998545 0.1665550447251 48.036324621093 4.8236912845029
123	2108506 7467 173 99789 16.367591712189 9984.527461425897 252 1 1 252 252
124	2115973 22481 176 99922 16.467591712189 9996.29836025113 499 0.099999999998545 0.18985906268244 50.311859929624 5.0990779720347
125	2138454 7463 181 99869 16.847395664611 9991.918063346884 252 1 1 252 252
126	2145917 21952 184 99872 16.947395664611 9992.018063346884 488 0.099999999998545 0.19889047368815 49.14696606304 4.9714153182513
127	2167869 6991 189 99001 17.641308615862 9915.117308790122 236 1 1 236 236
128	2174860 7112 191 99557 17.66775889018 9963.889896308186 240 1 1 240 240
129	2181972 22910 196 99836 17.841308615862 9988.387016457089 508 0.099999999998545 0.19138510174503 51.519557801593 5.271958676119
130	2204882 7701 197 99659 17.874095078863 9972.3131129696 259 1 1 259 259
131	2212583 23734 200 99670 17.974095078863 9972.4131129696 526 0.099999999998545 0.1933890832388 53.229022363739 5.432937584889
132	2236317 7153 201 99627 18.978123097032 9970.356614707277 241 1 1 241 241
133	2243470 6649 205 99569 19.104421094141 9964.309546015493 224 1 1 224 224
134	2250119 8015 217 99555 20.214726343078 9963.802648041362 270 1 1 270 270
135	2258134 7244 225 99897 20.488882379969 9994.193639987323 244 1 1 244 244
136	2265378 7667 229 99705 20.947590863274 9978.693861603118 258 1 1 258 258
137	2273045 7923 231 98837 21.03798383054 9902.210757010986 267 1 1 267 267
138	2280968 23941 234 99710 21.047590863274 9978.793861603118 531 0.099999999998545 0.19357833162394 53.345523535424 5.3768755875905
139	2304909 7018 237 99285 21.274448361755 9938.107291767561 237 1 1 237 237
140	2311927 7374 243 99349 21.399766053515 9941.312320315941 249 1 1 249 249
141	2319301 7982 253 99689 22.555976236379 9975.785459974153 269 1 1 269 269
142	2327283 23656 256 99858 22.655976236379 9990.968617356544 525 0.099999999998545 0.16152930931912 52.838483551797 5.3315447977822
143	2350939 6857 269 99277 23.627137632438 9937.050406667541 231 1 1 231 231
144	2357796 21794 272 99864 23.727137632438 9991.300229497653 483 0.099999999998545 0.1830992661894 48.645660471995 4.9190628735503
145	2379590 8234 273 98853 23.737309924295 9903.337871971876 277 1 1 277 277
146	2387824 23700 276 99516 23.837309924295 9957.972701764933 525 0.099999999998545 0.19622675877417 53.038900722432 5.4020768395631
147	2411524 6779 285 99945 24.630156904837 9998.728044113561 229 1 1 229 229
148	2418303 21437 290 99948 24.730156904837 9998.828044113561 476 0.099999999998545 0.17490158910368 47.800225588628 4.8106065156398
149	2439740 7424 297 99437 26.938924517161 9950.033446603781 250 1 1 250 250
150	2447164 7024 309 99389 28.348704517473 9944.552352569464 237 1 1 237 237
151	2454188 21827 312 99392 28.448704517473 9944.652352569464 484 0.099999999998545 0.1655061288111 48.65246715241 4.904710961591
152	2476015 7356 321 99743 29.033848991076 9981.895403971032 248 1 1 248 248
153	2483371 21518 324 99748 29.133848991076 9981.995403971032 478 0.099999999998545 0.19881681808965 48.098237059066 4.8594260185063
154	2504889 6613 325 99777 29.336643555588 9983.64115021959 223 1 1 223 223
155	2511502 6817 329 99637 29.480720659614 9971.221956246559 230 1 1 230 230
156	2518319 7265 335 99913 29.69814433919 9995.546535264133 245 1 1 245 245
157	2525584 7361 341 99513 30.483277073573 9957.872701764933 248 1 1 248 248
158	2532945 7820 361 99651 32.409279994912 9972.227242901826 263 1 1 263 263
159	2540765 6980 381 99625 33.931809311181 9970.341631869743 235 1 1 235 235
160	2547745 7344 393 99855 36.314248489937 9990.945415137887 247 1 1 247 247
161	2555089 6984 397 99925 36.645260577018 9997.850736889837 236 1 1 236 236
162	2562073 22843 400 99928 36.745260577018 9997.950736889837 507 0.099999999998545 0.21037135970437 51.159138312147 5.195806556032
163	2584916 7465 413 98821 39.044874247293 9900.970443099467 252 1 1 252 252
164	2592381 7617 427 99493 39.510407442202 9956.534178196062 257 1 1 257 257
165	2599998 7321 437 99293 39.909488265527 9938.642225595624 247 1 1 247 247
166	2607319 7109 453 98531 41.900040263182 9875.593050820926 239 1 1 239 239
167	2614428 6719 465 99815 42.625305121081 9987.602127316908 226 1 1 226 226
168	2621147 8081 477 99819 42.937317322725 9987.701385455549 272 1 1 272 272
169	2629228 7181 493 99865 44.078349078572 9991.81533241574 242 1 1 242 242
170	2636409 7315 509 99601 44.688616925188 9968.098654266964 247 1 1 247 247
171	2643724 22492 512 99610 44.788616925188 9968.198654266964 499 0.099999999998545 0.2333392125729 50.536366072787 5.1659169104844
172	2666216 7091 517 99201 45.32373084527 9930.940855283846 239 1 1 239 239
173	2673307 21552 520 99588 45.42373084527 9967.663664546412 478 0.099999999998545 0.1967987931539 48.118043843046 4.8645615281553
174	2694859 8048 535 99807 47.630506606922 9986.397378650268 271 1 1 271 271
175	2702907 7414 553 99735 48.906363030484 9981.310609718283 250 1 1 250 250
176	2710321 23457 556 99818 49.006363030484 9987.662962895333 520 0.099999999998545 0.19930723632115 52.553121035342 5.350290213088
177	2733778 7222 577 99141 54.684837618422 9926.060856567642 243 1 1 243 243
178	2741000 8175 581 99751 54.798033480711 9982.190186299508 275 1 1 275 275
179	2749175 7733 597 99757 56.870592961744 9982.653025767552 261 1 1 261 261
180	2756908 7541 613 99929 58.954124358242 9998.099996706859 254 1 1 254 254