version 3
run Lognormal-1-20260105-17:01:22-25149
attr configname Lognormal
attr datetime 20260105-17:01:22
attr datetimef 20260105-170122
attr experiment Lognormal
attr inifile omnetpp.ini
attr iterationvars "$N=50, $p=0.3"
attr iterationvarsd N=50/p=0.3
attr iterationvarsf N=50,p=0.3-
attr measurement "$N=50, $p=0.3"
attr network progetto.DatabaseNetwork
attr processid 25149
attr repetition 1
attr replication #1
attr resultdir results
attr runnumber 1
attr seedset 1
itervar N 50
itervar p 0.3
config description "Lognormal distribution (hotspots) - varia N e p"
config *.user[*].tableDistribution "\"lognormal\""
config *.user[*].lognormalM 1.5
config *.user[*].lognormalS 1.0
config *.numUsers 50
config *.user[*].readProbability 0.3
config network progetto.DatabaseNetwork
config sim-time-limit 10000s
config cpu-time-limit 3600s
config repeat 5
config seed-set 1
config output-vector-file "results/Lognormal-$N=50, $p=0.3-1.vec"
config output-scalar-file "results/Lognormal-$N=50, $p=0.3-1.sca"
config result-dir results
config **.vector-recording true
config **.scalar-recording true
config *.numTables 20
config *.user[*].lambda 0.05
config *.user[*].serviceTime 0.1s

vector 0 DatabaseNetwork.user[0] AccessInterval ETV
vector 1 DatabaseNetwork.user[1] AccessInterval ETV
vector 2 DatabaseNetwork.user[2] AccessInterval ETV
vector 3 DatabaseNetwork.user[3] AccessInterval ETV
vector 4 DatabaseNetwork.user[4] AccessInterval ETV
vector 5 DatabaseNetwork.user[5] AccessInterval ETV
vector 6 DatabaseNetwork.user[6] AccessInterval ETV
vector 7 DatabaseNetwork.user[7] AccessInterval ETV
vector 8 DatabaseNetwork.user[8] AccessInterval ETV
vector 9 DatabaseNetwork.user[9] AccessInterval ETV
vector 10 DatabaseNetwork.user[10] AccessInterval ETV
vector 11 DatabaseNetwork.user[11] AccessInterval ETV
vector 12 DatabaseNetwork.user[12] AccessInterval ETV
vector 13 DatabaseNetwork.user[13] AccessInterval ETV
vector 14 DatabaseNetwork.user[14] AccessInterval ETV
vector 15 DatabaseNetwork.user[15] AccessInterval ETV
vector 16 DatabaseNetwork.user[16] AccessInterval ETV
vector 17 DatabaseNetwork.user[17] AccessInterval ETV
vector 18 DatabaseNetwork.user[18] AccessInterval ETV
vector 19 DatabaseNetwork.user[19] AccessInterval ETV
vector 20 DatabaseNetwork.user[20] AccessInterval ETV
vector 21 DatabaseNetwork.user[21] AccessInterval ETV
vector 22 DatabaseNetwork.user[22] AccessInterval ETV
vector 23 DatabaseNetwork.user[23] AccessInterval ETV
vector 24 DatabaseNetwork.user[24] AccessInterval ETV
vector 25 DatabaseNetwork.user[25] AccessInterval ETV
vector 26 DatabaseNetwork.user[26] AccessInterval ETV
vector 27 DatabaseNetwork.user[27] AccessInterval ETV
vector 28 DatabaseNetwork.user[28] AccessInterval ETV
vector 29 DatabaseNetwork.user[29] AccessInterval ETV
vector 30 DatabaseNetwork.user[30] AccessInterval ETV
vector 31 DatabaseNetwork.user[31] AccessInterval ETV
vector 32 DatabaseNetwork.user[32] AccessInterval ETV
vector 33 DatabaseNetwork.user[33] AccessInterval ETV
vector 34 DatabaseNetwork.user[34] AccessInterval ETV
vector 35 DatabaseNetwork.user[35] AccessInterval ETV
vector 36 DatabaseNetwork.user[36] AccessInterval ETV
vector 37 DatabaseNetwork.user[37] AccessInterval ETV
vector 38 DatabaseNetwork.user[38] AccessInterval ETV
vector 39 DatabaseNetwork.user[39] AccessInterval ETV
vector 40 DatabaseNetwork.user[40] AccessInterval ETV
vector 41 DatabaseNetwork.user[41] AccessInterval ETV
vector 42 DatabaseNetwork.user[42] AccessInterval ETV
vector 43 DatabaseNetwork.user[43] AccessInterval ETV
vector 44 DatabaseNetwork.user[44] AccessInterval ETV
vector 45 DatabaseNetwork.user[45] AccessInterval ETV
vector 46 DatabaseNetwork.user[46] AccessInterval ETV
vector 47 DatabaseNetwork.user[47] AccessInterval ETV
vector 48 DatabaseNetwork.user[48] AccessInterval ETV
vector 49 DatabaseNetwork.user[49] AccessInterval ETV
vector 50 DatabaseNetwork.user[4] ReadAccesses ETV
vector 51 DatabaseNetwork.user[4] WaitTime ETV
vector 52 DatabaseNetwork.user[28] ReadAccesses ETV
vector 53 DatabaseNetwork.user[28] WaitTime ETV
vector 54 DatabaseNetwork.user[10] WriteAccesses ETV
vector 55 DatabaseNetwork.user[45] WriteAccesses ETV
vector 56 DatabaseNetwork.user[10] WaitTime ETV
vector 57 DatabaseNetwork.user[45] WaitTime ETV
vector 58 DatabaseNetwork.user[5] WriteAccesses ETV
vector 59 DatabaseNetwork.user[5] WaitTime ETV
vector 60 DatabaseNetwork.user[36] ReadAccesses ETV
vector 61 DatabaseNetwork.user[36] WaitTime ETV
vector 62 DatabaseNetwork.user[8] WriteAccesses ETV
vector 63 DatabaseNetwork.user[8] WaitTime ETV
vector 64 DatabaseNetwork.user[12] ReadAccesses ETV
vector 65 DatabaseNetwork.user[12] WaitTime ETV
vector 66 DatabaseNetwork.user[38] WriteAccesses ETV
vector 67 DatabaseNetwork.user[38] WaitTime ETV
vector 68 DatabaseNetwork.user[24] ReadAccesses ETV
vector 69 DatabaseNetwork.user[24] WaitTime ETV
vector 70 DatabaseNetwork.user[27] ReadAccesses ETV
vector 71 DatabaseNetwork.user[27] WaitTime ETV
vector 72 DatabaseNetwork.user[9] ReadAccesses ETV
vector 73 DatabaseNetwork.user[9] WaitTime ETV
vector 74 DatabaseNetwork.user[12] WriteAccesses ETV
vector 75 DatabaseNetwork.user[27] WriteAccesses ETV
vector 76 DatabaseNetwork.user[6] WriteAccesses ETV
vector 77 DatabaseNetwork.user[6] WaitTime ETV
vector 78 DatabaseNetwork.user[21] ReadAccesses ETV
vector 79 DatabaseNetwork.user[44] WriteAccesses ETV
vector 80 DatabaseNetwork.user[21] WaitTime ETV
vector 81 DatabaseNetwork.user[44] WaitTime ETV
vector 82 DatabaseNetwork.user[14] WriteAccesses ETV
vector 83 DatabaseNetwork.user[14] WaitTime ETV
vector 84 DatabaseNetwork.user[14] ReadAccesses ETV
vector 85 DatabaseNetwork.user[13] WriteAccesses ETV
vector 86 DatabaseNetwork.user[13] WaitTime ETV
vector 87 DatabaseNetwork.user[11] WriteAccesses ETV
vector 88 DatabaseNetwork.user[16] WriteAccesses ETV
vector 89 DatabaseNetwork.user[11] WaitTime ETV
vector 90 DatabaseNetwork.user[16] WaitTime ETV
vector 91 DatabaseNetwork.user[0] WriteAccesses ETV
vector 92 DatabaseNetwork.user[32] ReadAccesses ETV
vector 93 DatabaseNetwork.user[20] WriteAccesses ETV
vector 94 DatabaseNetwork.user[0] WaitTime ETV
vector 95 DatabaseNetwork.user[32] WaitTime ETV
vector 96 DatabaseNetwork.user[20] WaitTime ETV
vector 97 DatabaseNetwork.user[35] WriteAccesses ETV
vector 98 DatabaseNetwork.user[35] WaitTime ETV
vector 99 DatabaseNetwork.user[25] ReadAccesses ETV
vector 100 DatabaseNetwork.user[25] WaitTime ETV
vector 101 DatabaseNetwork.user[33] WriteAccesses ETV
vector 102 DatabaseNetwork.user[33] WaitTime ETV
vector 103 DatabaseNetwork.user[47] ReadAccesses ETV
vector 104 DatabaseNetwork.user[47] WaitTime ETV
vector 105 DatabaseNetwork.user[23] WriteAccesses ETV
vector 106 DatabaseNetwork.user[23] WaitTime ETV
vector 107 DatabaseNetwork.user[29] WriteAccesses ETV
vector 108 DatabaseNetwork.user[29] WaitTime ETV
vector 109 DatabaseNetwork.user[18] WriteAccesses ETV
vector 110 DatabaseNetwork.user[18] WaitTime ETV
vector 111 DatabaseNetwork.user[34] WriteAccesses ETV
vector 112 DatabaseNetwork.user[34] WaitTime ETV
vector 113 DatabaseNetwork.user[11] ReadAccesses ETV
vector 114 DatabaseNetwork.user[28] WriteAccesses ETV
vector 115 DatabaseNetwork.user[33] ReadAccesses ETV
vector 116 DatabaseNetwork.user[15] WriteAccesses ETV
vector 117 DatabaseNetwork.user[30] ReadAccesses ETV
vector 118 DatabaseNetwork.user[15] WaitTime ETV
vector 119 DatabaseNetwork.user[30] WaitTime ETV
vector 120 DatabaseNetwork.user[24] WriteAccesses ETV
vector 121 DatabaseNetwork.user[22] WriteAccesses ETV
vector 122 DatabaseNetwork.user[22] WaitTime ETV
vector 123 DatabaseNetwork.user[46] WriteAccesses ETV
vector 124 DatabaseNetwork.user[46] WaitTime ETV
vector 125 DatabaseNetwork.user[8] ReadAccesses ETV
vector 126 DatabaseNetwork.user[41] ReadAccesses ETV
vector 127 DatabaseNetwork.user[41] WaitTime ETV
vector 128 DatabaseNetwork.user[38] ReadAccesses ETV
vector 129 DatabaseNetwork.user[2] ReadAccesses ETV
vector 130 DatabaseNetwork.user[2] WaitTime ETV
vector 131 DatabaseNetwork.user[30] WriteAccesses ETV
vector 132 DatabaseNetwork.user[10] ReadAccesses ETV
vector 133 DatabaseNetwork.user[39] WriteAccesses ETV
vector 134 DatabaseNetwork.user[39] WaitTime ETV
vector 135 DatabaseNetwork.user[13] ReadAccesses ETV
vector 136 DatabaseNetwork.user[41] WriteAccesses ETV
vector 137 DatabaseNetwork.user[23] ReadAccesses ETV
vector 138 DatabaseNetwork.user[40] ReadAccesses ETV
vector 139 DatabaseNetwork.user[40] WaitTime ETV
vector 140 DatabaseNetwork.user[34] ReadAccesses ETV
vector 141 DatabaseNetwork.user[43] WriteAccesses ETV
vector 142 DatabaseNetwork.user[43] WaitTime ETV
vector 143 DatabaseNetwork.user[5] ReadAccesses ETV
vector 144 DatabaseNetwork.user[6] ReadAccesses ETV
vector 145 DatabaseNetwork.user[45] ReadAccesses ETV
vector 146 DatabaseNetwork.user[19] WriteAccesses ETV
vector 147 DatabaseNetwork.user[19] WaitTime ETV
vector 148 DatabaseNetwork.user[36] WriteAccesses ETV
vector 149 DatabaseNetwork.user[49] ReadAccesses ETV
vector 150 DatabaseNetwork.user[49] WaitTime ETV
vector 151 DatabaseNetwork.user[48] WriteAccesses ETV
vector 152 DatabaseNetwork.user[48] WaitTime ETV
vector 153 DatabaseNetwork.user[26] WriteAccesses ETV
vector 154 DatabaseNetwork.user[26] WaitTime ETV
vector 155 DatabaseNetwork.user[32] WriteAccesses ETV
vector 156 DatabaseNetwork.user[4] WriteAccesses ETV
vector 157 DatabaseNetwork.user[47] WriteAccesses ETV
vector 158 DatabaseNetwork.user[43] ReadAccesses ETV
vector 159 DatabaseNetwork.user[31] WriteAccesses ETV
vector 160 DatabaseNetwork.user[31] WaitTime ETV
vector 161 DatabaseNetwork.user[35] ReadAccesses ETV
vector 162 DatabaseNetwork.user[3] WriteAccesses ETV
vector 163 DatabaseNetwork.user[3] WaitTime ETV
vector 164 DatabaseNetwork.user[3] ReadAccesses ETV
vector 165 DatabaseNetwork.user[39] ReadAccesses ETV
vector 166 DatabaseNetwork.user[17] ReadAccesses ETV
vector 167 DatabaseNetwork.user[17] WaitTime ETV
vector 168 DatabaseNetwork.user[37] WriteAccesses ETV
vector 169 DatabaseNetwork.user[37] WaitTime ETV
vector 170 DatabaseNetwork.user[17] WriteAccesses ETV
vector 171 DatabaseNetwork.user[37] ReadAccesses ETV
vector 172 DatabaseNetwork.user[9] WriteAccesses ETV
vector 173 DatabaseNetwork.user[16] ReadAccesses ETV
vector 174 DatabaseNetwork.user[22] ReadAccesses ETV
vector 175 DatabaseNetwork.user[42] ReadAccesses ETV
vector 176 DatabaseNetwork.user[42] WaitTime ETV
vector 177 DatabaseNetwork.user[21] WriteAccesses ETV
vector 178 DatabaseNetwork.user[2] WriteAccesses ETV
vector 179 DatabaseNetwork.user[42] WriteAccesses ETV
vector 180 DatabaseNetwork.user[25] WriteAccesses ETV
vector 181 DatabaseNetwork.user[31] ReadAccesses ETV
vector 182 DatabaseNetwork.user[18] ReadAccesses ETV
vector 183 DatabaseNetwork.user[29] ReadAccesses ETV
vector 184 DatabaseNetwork.user[49] WriteAccesses ETV
vector 185 DatabaseNetwork.user[44] ReadAccesses ETV
vector 186 DatabaseNetwork.user[48] ReadAccesses ETV
vector 187 DatabaseNetwork.user[19] ReadAccesses ETV
vector 188 DatabaseNetwork.user[1] WriteAccesses ETV
vector 189 DatabaseNetwork.user[1] WaitTime ETV
vector 190 DatabaseNetwork.user[0] ReadAccesses ETV
vector 191 DatabaseNetwork.user[40] WriteAccesses ETV
vector 192 DatabaseNetwork.user[1] ReadAccesses ETV
vector 193 DatabaseNetwork.user[15] ReadAccesses ETV
vector 194 DatabaseNetwork.user[7] WriteAccesses ETV
vector 195 DatabaseNetwork.user[7] WaitTime ETV
vector 196 DatabaseNetwork.user[46] ReadAccesses ETV
vector 197 DatabaseNetwork.user[7] ReadAccesses ETV
vector 198 DatabaseNetwork.user[26] ReadAccesses ETV
vector 199 DatabaseNetwork.user[20] ReadAccesses ETV
0	0	0	10.792116530237
0	113	10.792116530237	8.7372298896852
0	173	19.529346419922	4.2627772128438
0	225	23.792123632766	27.876288869922
0	553	51.668412502688	21.595726086546
0	757	73.264138589234	9.3070946028367
0	825	82.571233192071	0.76292696056169
0	841	83.334160152633	14.291474230295
0	945	97.625634382928	20.48338054373
0	1173	118.109014926658	0.57353557965179
0	1181	118.68255050631	10.455624203052
0	1289	129.138174709362	8.1795972089517
0	1375	137.317771918314	15.994134549002
0	1525	153.311906467316	10.083728066342
0	1669	163.395634533658	16.479986231823
0	1805	179.875620765481	0.11052133967928
0	1809	179.98614210516	27.657414895318
0	2125	207.643557000478	12.761617591501
0	2245	220.405174591979	4.6064431456707
0	2289	225.01161773765	7.1228513626724
0	2353	232.134469100322	51.10239994085
0	2845	283.236869041172	76.72358358334
0	3593	359.960452624512	4.7593090718827
0	3629	364.719761696395	2.4639824340297
0	3649	367.183744130425	9.4687532037331
0	3741	376.652497334158	20.497038540683
0	3947	397.149535874841	21.608164880949
0	4181	418.75770075579	96.170893959403
0	5051	514.928594715193	2.8166004996984
0	5081	517.745195214891	7.2452056535678
0	5145	524.990400868459	12.981062561808
0	5245	537.971463430267	103.98123803421
0	6239	641.952701464481	7.8135720878258
0	6321	649.766273552307	1.1709283283463
0	6329	650.937201880653	3.4751680035221
0	6373	654.412369884175	7.9548114333949
0	6455	662.36718131757	27.691157789755
0	6765	690.058339107325	2.0677272432674
0	6789	692.126066350592	22.572972590712
0	7023	714.699038941304	6.3723134738806
0	7093	721.071352415185	1.1646214352942
0	7109	722.235973850479	24.054176538264
0	7369	746.290150388743	12.291902443898
0	7497	758.582052832641	1.3570972828687
0	7513	759.93915011551	6.6192782033328
0	7607	766.558428318843	14.368315370911
0	7781	780.926743689754	13.875888489463
0	7931	794.802632179217	3.420433600197
0	7993	798.223065779414	11.942525260499
0	8117	810.165591039913	43.78366620336
0	8533	853.949257243273	14.012209433925
0	8685	867.961466677198	19.341954631575
0	8877	887.303421308773	1.5885341037404
0	8891	888.891955412513	64.015740145981
0	9473	952.907695558495	17.919227998665
0	9629	970.82692355716	7.5676112909659
0	9705	978.394534848126	11.267060185566
0	9781	989.661595033692	27.492650508043
0	10039	1017.154245541735	0.2930088218324
0	10045	1017.447254363567	0.3887886312012
0	10049	1017.836042994768	22.008716918682
0	10265	1039.84475991345	8.1867411151073
0	10345	1048.031501028557	0.47441452261973
0	10357	1048.505915551177	12.440009851778
0	10495	1060.945925402955	8.4655325092299
0	10589	1069.411457912185	27.751343703182
0	10905	1097.162801615367	24.771822626761
0	11177	1121.934624242128	12.028333011952
0	11321	1133.96295725408	5.8184950916801
0	11353	1139.78145234576	5.9943070663365
0	11403	1145.775759412097	8.4894762027082
0	11477	1154.265235614805	3.5591682373863
0	11505	1157.824403852191	42.594131398459
0	11913	1200.41853525065	23.38989442914
0	12169	1223.80842967979	26.076572339868
0	12405	1249.885002019658	25.300179088297
0	12665	1275.185181107955	9.9551434335631
0	12807	1285.140324541518	68.439689824178
0	13477	1353.580014365696	4.9715650072159
0	13529	1358.551579372912	6.957611087964
0	13593	1365.509190460876	9.3997190579899
0	13697	1374.908909518866	51.334965244917
0	14149	1426.243874763783	2.6368411169085
0	14177	1428.880715880692	11.462369352679
0	14325	1440.343085233371	53.409778803171
0	14861	1493.752864036542	30.011807093082
0	15185	1523.764671129624	5.2761825622147
0	15229	1529.040853691839	4.2021537757558
0	15263	1533.243007467595	37.801959237484
0	15645	1571.044966705079	12.993947379095
0	15769	1584.038914084174	11.731352846472
0	15873	1595.770266930646	50.382997871078
0	16401	1646.153264801724	1.6531178206478
0	16433	1647.806382622372	14.853966166788
0	16581	1662.66034878916	13.745687087825
0	16685	1676.406035876985	11.670378632729
0	16815	1688.076414509714	5.5406846238904
0	16857	1693.617099133604	11.172106675176
0	16973	1704.78920580878	17.482695993573
0	17157	1722.271901802353	14.730729743516
0	17297	1737.002631545869	9.2022302294624
0	17409	1746.204861775331	9.3697932982734
0	17521	1755.574655073604	20.175266332466
0	17737	1775.74992140607	53.91338655086
0	18285	1829.66330795693	1.0890825849035
0	18297	1830.752390541833	2.9809123071823
0	18339	1833.733302849015	7.938363887312
0	18437	1841.671666736327	36.895523241668
0	18775	1878.567189977995	13.670006112926
0	18915	1892.237196090921	8.85265848578
0	19025	1901.089854576701	24.813915757801
0	19341	1925.903770334502	15.204251780117
0	19491	1941.108022114619	1.0306440854526
0	19501	1942.138666200072	11.26949623869
0	19573	1953.408162438762	3.1214799738163
0	19589	1956.529642412578	117.33699495615
0	20797	2073.866637368731	50.040849558088
0	21285	2123.907486926819	4.0769513513824
0	21333	2127.984438278201	29.27688083991
0	21637	2157.261319118111	18.273821409422
0	21831	2175.535140527533	0.41158013103756
0	21837	2175.946720658571	23.625384791529
0	22051	2199.5721054501	39.569998537922
0	22457	2239.142103988022	47.598885602256
0	22833	2286.740989590278	2.0138598783378
0	22871	2288.754849468616	11.755051913076
0	22965	2300.509901381692	18.344817536925
0	23127	2318.854718918617	13.14707810228
0	23235	2332.001797020897	9.0491674025136
0	23305	2341.050964423411	1.3254342204281
0	23333	2342.376398643839	31.903369221042
0	23665	2374.279767864881	30.11578410148
0	23933	2404.395551966361	36.039153744743
0	24285	2440.434705711104	3.1737261653804
0	24325	2443.608431876484	10.264185758781
0	24437	2453.872617635265	3.4123597292117
0	24469	2457.284977364477	3.7816421792634
0	24509	2461.06661954374	27.042579833043
0	24809	2488.109199376783	5.7740652041768
0	24885	2493.88326458096	19.268423078086
0	25077	2513.151687659046	11.666047511757
0	25241	2524.817735170803	26.560102962414
0	25481	2551.377838133217	23.63227279241
0	25745	2575.010110925627	6.0823171627834
0	25809	2581.09242808841	3.4777948438344
0	25847	2584.570222932244	26.007740674921
0	26137	2610.577963607165	0.48668003981565
0	26157	2611.064643646981	13.875249310572
0	26301	2624.939892957553	1.4922202290017
0	26321	2626.432113186555	14.305168721687
0	26433	2640.737281908242	20.670650643045
0	26647	2661.407932551287	48.000117831843
0	27137	2709.40805038313	0.96482646312301
0	27145	2710.372876846253	12.011829810884
0	27293	2722.384706657137	9.609778455005
0	27391	2731.994485112142	7.2828013139729
0	27453	2739.277286426115	10.479125253217
0	27563	2749.756411679332	7.2454449607522
0	27649	2757.001856640084	0.26588881618319
0	27657	2757.267745456267	4.2495163672616
0	27709	2761.517261823529	0.5177913057477
0	27717	2762.035053129277	12.964044847766
0	27845	2774.999097977043	0.69659003374636
0	27853	2775.695688010789	1.7808576943965
0	27869	2777.476545705186	10.474297986091
0	27977	2787.950843691277	27.143907936083
0	28285	2815.09475162736	94.826303293273
0	29299	2909.921054920633	21.595806519187
0	29437	2931.51686143982	3.8411559016018
0	29485	2935.358017341422	18.972943943832
0	29723	2954.330961285254	45.979885428642
0	30137	3000.310846713896	4.2559944503661
0	30159	3004.566841164262	29.565596790579
0	30453	3034.132437954841	16.760208736977
0	30577	3050.892646691818	3.503198742124
0	30609	3054.395845433942	7.2019300044007
0	30697	3061.597775438343	7.3136683626325
0	30761	3068.911443800975	9.877643537836
0	30907	3078.789087338811	8.7616010771049
0	31001	3087.550688415916	58.853745469507
0	31605	3146.404433885423	20.666230486156
0	31881	3167.070664371579	57.615804827523
0	32433	3224.686469199102	9.783202976468
0	32533	3234.46967217557	52.050241540959
0	33061	3286.519913716529	13.928796865537
0	33173	3300.448710582066	10.562150379286
0	33277	3311.010860961352	67.652488361198
0	33947	3378.66334932255	0.04378995071778
0	33951	3378.707139273268	0.083222576149273
0	33955	3378.790361849417	47.989839804418
0	34481	3426.780201653835	89.452234120492
0	35497	3516.232435774327	34.449920678323
0	35791	3550.68235645265	19.37225781588
0	35979	3570.05461426853	15.749748554989
0	36139	3585.804362823519	64.366302192176
0	36805	3650.170665015695	0.81473097271694
0	36813	3650.985395988412	2.2426398228907
0	36833	3653.228035811303	41.534170129667
0	37197	3694.76220594097	18.517124359943
0	37375	3713.279330300913	6.2402504917827
0	37441	3719.519580792696	22.224851268923
0	37647	3741.744432061619	70.304155973744
0	38349	3812.048588035363	1.1966819812381
0	38363	3813.245270016601	35.459634855948
0	38727	3848.704904872549	2.741674843542
0	38757	3851.446579716091	0.27087394282258
0	38765	3851.717453658914	79.428674867612
0	39571	3931.146128526526	11.35195937964
0	39693	3942.498087906166	12.355035041764
0	39807	3954.85312294793	23.568057564867
0	39997	3978.421180512797	2.1152183017706
0	40013	3980.536398814568	2.2002230908634
0	40041	3982.736621905431	17.50210391477
0	40187	4000.238725820201	19.800962695354
0	40373	4020.039688515555	1.7947205233224
0	40401	4021.834409038877	9.2637905266053
0	40517	4031.098199565482	42.089577576863
0	40917	4073.187777142345	80.584174717074
0	41815	4153.771951859419	4.8912326799842
0	41881	4158.663184539403	20.810999818529
0	42063	4179.474184357932	19.125519972861
0	42205	4198.599704330793	29.877135237337
0	42533	4228.47683956813	11.374256185042
0	42637	4239.851095753172	10.475163900651
0	42713	4250.326259653823	0.60112558037159
0	42725	4250.927385234195	50.248252066988
0	43175	4301.175637301183	23.029819524624
0	43383	4324.205456825807	2.7367223087869
0	43401	4326.942179134594	13.351282900433
0	43497	4340.293462035027	63.866578271247
0	44193	4404.160040306274	29.08722137818
0	44513	4433.247261684454	42.17202986882
0	44861	4475.419291553274	23.983680124313
0	45109	4499.402971677587	48.946385708755
0	45605	4548.349357386342	10.197756935423
0	45733	4558.547114321765	16.748003117205
0	45911	4575.29511743897	6.5784170494736
0	45997	4581.873534488444	13.048118907973
0	46121	4594.921653396417	20.373749697154
0	46289	4615.295403093571	40.462321391414
0	46641	4655.757724484985	26.621141523771
0	46931	4682.378866008756	3.4735962353275
0	46973	4685.852462244083	24.431700749537
0	47169	4710.28416299362	2.4523710828799
0	47213	4712.7365340765	44.530266768654
0	47629	4757.266800845154	39.230256162334
0	48069	4796.497057007488	2.582577966721
0	48085	4799.079634974209	3.1594998735851
0	48125	4802.239134847794	33.382627374555
0	48469	4835.621762222349	34.519375782528
0	48787	4870.141138004877	3.8560413262287
0	48829	4873.997179331106	15.738261920906
0	48977	4889.735441252012	0.29721658118616
0	48987	4890.032657833198	21.696131639228
0	49213	4911.728789472426	0.33530128954805
0	49217	4912.064090761974	24.245574438801
0	49503	4936.309665200775	6.9916935069318
0	49581	4943.301358707707	1.8721517015128
0	49589	4945.17351040922	15.558418161267
0	49753	4960.731928570487	14.649262185056
0	49919	4975.381190755543	33.129479873826
0	50241	5008.510670629369	73.078742636727
0	50957	5081.589413266096	12.516673249489
0	51053	5094.106086515585	33.424255377895
0	51305	5127.53034189348	24.003641942506
0	51607	5151.533983835986	3.6468130991287
0	51637	5155.180796935115	0.18338100799529
0	51643	5155.36417794311	5.5904351414331
0	51705	5160.954613084543	10.190367320787
0	51817	5171.14498040533	50.886044053254
0	52349	5222.031024458584	9.2190540141221
0	52409	5231.250078472706	24.911386639057
0	52649	5256.161465111763	9.5211774590779
0	52761	5265.682642570841	32.959868667633
0	53067	5298.642511238474	46.695124684623
0	53505	5345.337635923097	37.446417988297
0	53905	5382.784053911394	4.6610664664268
0	53949	5387.445120377821	65.992275531767
0	54597	5453.437395909588	19.383004704677
0	54813	5472.820400614265	84.11998561097
0	55609	5556.940386225235	7.7271260561089
0	55679	5564.667512281344	2.543803502502
0	55725	5567.211315783846	5.4747662943017
0	55789	5572.686082078148	22.033492037388
0	56019	5594.719574115536	15.445991271776
0	56197	5610.165565387312	2.0432192229663
0	56221	5612.208784610278	28.408927115824
0	56501	5640.617711726102	12.363227752975
0	56649	5652.980939479077	9.2470786525189
0	56737	5662.228018131596	10.650555474978
0	56825	5672.878573606574	20.283003699574
0	57029	5693.161577306148	23.011435634594
0	57257	5716.173012940742	6.8717306453236
0	57313	5723.044743586066	8.099695369851
0	57419	5731.144438955917	1.5240213984281
0	57437	5732.668460354345	2.9670778483234
0	57465	5735.635538202668	20.989049456007
0	57697	5756.624587658675	2.4777229736044
0	57751	5759.102310632279	6.9994305544147
0	57809	5766.101741186694	4.1610398110026
0	57835	5770.262780997697	3.7881208048728
0	57871	5774.05090180257	5.3743112662602
0	57929	5779.42521306883	5.8297651513399
0	57995	5785.25497822017	6.8043876509693
0	58053	5792.059365871139	10.738371126188
0	58197	5802.797736997327	21.143791732494
0	58385	5823.941528729821	12.904905498232
0	58529	5836.846434228053	27.203945910196
0	58793	5864.050380138249	3.7394935697469
0	58849	5867.789873707996	55.428527099374
0	59393	5923.21840080737	8.6107551255847
0	59491	5931.829155932955	13.803661113349
0	59635	5945.632817046304	8.8604166288546
0	59729	5954.493233675159	3.3057908295746
0	59769	5957.799024504734	1.2719175555804
0	59785	5959.070942060314	35.117141207393
0	60175	5994.188083267707	64.235548054433
0	60835	6058.42363132214	16.640344338816
0	61061	6075.063975660956	12.268136076527
0	61209	6087.332111737483	34.906490235796
0	61521	6122.238601973279	1.6580950137375
0	61537	6123.896696987017	6.0287278158437
0	61609	6129.925424802861	3.8215821452368
0	61657	6133.747006948098	29.475964219841
0	61985	6163.222971167939	1.0335142102462
0	62001	6164.256485378185	17.789847504529
0	62153	6182.046332882714	1.6101402729164
0	62173	6183.65647315563	13.771112492638
0	62313	6197.427585648268	21.072991715888
0	62491	6218.500577364156	38.364820210942
0	62845	6256.865397575098	1.8684680068481
0	62865	6258.733865581946	9.2626656718471
0	62929	6267.996531253793	20.116933459611
0	63197	6288.113464713404	6.7556794395295
0	63261	6294.869144152933	9.9833008544845
0	63377	6304.852445007418	35.577979963839
0	63733	6340.430424971257	13.348815864509
0	63861	6353.779240835766	11.322641109181
0	63981	6365.101881944947	11.581057414238
0	64117	6376.682939359185	1.9111811278323
0	64143	6378.594120487017	37.080837785967
0	64547	6415.674958272984	7.8807884583788
0	64619	6423.555746731363	11.469243400666
0	64709	6435.024990132029	16.309108445677
0	64897	6451.334098577706	1.8113010750335
0	64913	6453.14539965274	22.470626003602
0	65101	6475.616025656342	8.5811986103998
0	65191	6484.197224266742	8.6861908801986
0	65269	6492.883415146941	23.789136840022
0	65477	6516.672551986963	13.150986422549
0	65597	6529.823538409512	37.78839065269
0	65949	6567.611929062202	25.269606681977
0	66177	6592.881535744179	12.21649213177
0	66293	6605.098027875949	2.626303555407
0	66305	6607.724331431356	3.9884086851886
0	66349	6611.712740116545	2.29869679352
0	66365	6614.011436910065	47.084127791025
0	66813	6661.09556470109	5.0163541321424
0	66871	6666.111918833232	59.948356991718
0	67473	6726.06027582495	10.602213498316
0	67583	6736.662489323266	4.1705035078793
0	67615	6740.832992831145	21.002261569328
0	67825	6761.835254400473	64.33853336025
0	68507	6826.173787760723	13.594422578032
0	68661	6839.768210338755	23.251713477173
0	68889	6863.019923815928	66.879455809253
0	69517	6929.899379625181	15.001026010185
0	69693	6944.900405635366	11.809945344361
0	69829	6956.710350979727	53.978687646177
0	70365	7010.689038625904	2.8298109279313
0	70381	7013.518849553835	59.297016456744
0	70849	7072.815866010579	43.619942567396
0	71267	7116.435808577975	15.353647874116
0	71421	7131.789456452091	46.871811421037
0	71893	7178.661267873128	14.486979031212
0	72033	7193.14824690434	67.112450919967
0	72613	7260.260697824307	51.717658331788
0	73071	7311.978356156095	72.683673240366
0	73711	7384.662029396461	15.155185716841
0	73833	7399.817215113302	5.4183226784628
0	73897	7405.235537791765	42.368734785361
0	74403	7447.604272577126	9.3347274340977
0	74517	7456.939000011224	0.94710071540522
0	74539	7457.886100726629	40.300307031428
0	75021	7498.186407758057	9.912249771224
0	75105	7508.098657529281	16.005967344245
0	75273	7524.104624873526	28.81115853169
0	75605	7552.915783405216	18.553474428858
0	75829	7571.469257834074	1.0627375114291
0	75845	7572.531995345503	1.3204074252347
0	75865	7573.852402770738	77.722088577904
0	76709	7651.574491348642	7.2446327474924
0	76789	7658.819124096134	21.268809693879
0	76999	7680.087933790013	0.76497185448133
0	77005	7680.852905644494	111.06735699411
0	78123	7791.920262638601	27.344564098575
0	78385	7819.264826737176	4.59129051504
0	78441	7823.856117252216	17.75203333648
0	78669	7841.608150588696	33.643441165959
0	78993	7875.251591754655	1.7105112578526
0	79005	7876.962103012508	28.033536647633
0	79257	7904.995639660141	11.110577577341
0	79365	7916.106217237482	12.66180784752
0	79465	7928.768025085002	12.331015190773
0	79609	7941.099040275775	91.406406586712
0	80577	8032.505446862487	18.675284444021
0	80777	8051.180731306508	0.11389617667808
0	80781	8051.294627483186	8.7080078527976
0	80839	8060.002635335984	17.662416631405
0	81041	8077.665051967389	124.10925927791
0	82245	8201.774311245297	11.854277344475
0	82341	8213.628588589772	5.7797768263542
0	82377	8219.408365416126	28.800372175448
0	82625	8248.208737591574	3.4331639228819
0	82675	8251.641901514456	66.686532697431
0	83349	8318.328434211887	22.604474105572
0	83573	8340.932908317459	5.4532292991874
0	83629	8346.386137616646	12.158877467336
0	83741	8358.545015083982	5.6924461871926
0	83789	8364.237461271175	70.944107480478
0	84457	8435.181568751653	62.405249336685
0	85045	8497.586818088338	31.77128382618
0	85337	8529.358101914518	6.1291357441607
0	85417	8535.487237658679	2.8479107633912
0	85441	8538.33514842207	13.979166423383
0	85587	8552.314314845453	50.466160476239
0	86085	8602.780475321692	9.4333330042882
0	86181	8612.21380832598	41.718857903241
0	86585	8653.932666229221	4.5973947647523
0	86633	8658.530060993973	30.497566514893
0	86905	8689.027627508866	2.0868603408252
0	86925	8691.114487849691	35.850066107345
0	87311	8726.964553957036	20.630783425241
0	87531	8747.595337382277	17.919979032346
0	87693	8765.515316414623	12.334984586458
0	87825	8777.850301001081	1.2436538910317
0	87845	8779.093954892113	15.476618226599
0	87993	8794.570573118712	6.3433323991948
0	88049	8800.913905517907	7.7079730639229
0	88125	8808.62187858183	7.1331343238581
0	88173	8815.755012905688	22.81485091504
0	88383	8838.569863820728	36.349598623791
0	88749	8874.919462444519	7.3870611468411