version 3
run Lognormal-10-20260105-17:01:22-25149
attr configname Lognormal
attr datetime 20260105-17:01:22
attr datetimef 20260105-170122
attr experiment Lognormal
attr inifile omnetpp.ini
attr iterationvars "$N=50, $p=0.7"
attr iterationvarsd N=50/p=0.7
attr iterationvarsf N=50,p=0.7-
attr measurement "$N=50, $p=0.7"
attr network progetto.DatabaseNetwork
attr processid 25149
attr repetition 0
attr replication #0
attr resultdir results
attr runnumber 10
attr seedset 0
itervar N 50
itervar p 0.7
config description "Lognormal distribution (hotspots) - varia N e p"
config *.user[*].tableDistribution "\"lognormal\""
config *.user[*].lognormalM 1.5
config *.user[*].lognormalS 1.0
config *.numUsers 50
config *.user[*].readProbability 0.7
config network progetto.DatabaseNetwork
config sim-time-limit 10000s
config cpu-time-limit 3600s
config repeat 5
config seed-set 0
config output-vector-file "results/Lognormal-$N=50, $p=0.7-0.vec"
config output-scalar-file "results/Lognormal-$N=50, $p=0.7-0.sca"
config result-dir results
config **.vector-recording true
config **.scalar-recording true
config *.numTables 20
config *.user[*].lambda 0.05
config *.user[*].serviceTime 0.1s

vector 0 DatabaseNetwork.user[0] AccessInterval ETV
vector 1 DatabaseNetwork.user[1] AccessInterval ETV
vector 2 DatabaseNetwork.user[2] AccessInterval ETV
vector 3 DatabaseNetwork.user[3] AccessInterval ETV
vector 4 DatabaseNetwork.user[4] AccessInterval ETV
vector 5 DatabaseNetwork.user[5] AccessInterval ETV
vector 6 DatabaseNetwork.user[6] AccessInterval ETV
vector 7 DatabaseNetwork.user[7] AccessInterval ETV
vector 8 DatabaseNetwork.user[8] AccessInterval ETV
vector 9 DatabaseNetwork.user[9] AccessInterval ETV
vector 10 DatabaseNetwork.user[10] AccessInterval ETV
vector 11 DatabaseNetwork.user[11] AccessInterval ETV
vector 12 DatabaseNetwork.user[12] AccessInterval ETV
vector 13 DatabaseNetwork.user[13] AccessInterval ETV
vector 14 DatabaseNetwork.user[14] AccessInterval ETV
vector 15 DatabaseNetwork.user[15] AccessInterval ETV
vector 16 DatabaseNetwork.user[16] AccessInterval ETV
vector 17 DatabaseNetwork.user[17] AccessInterval ETV
vector 18 DatabaseNetwork.user[18] AccessInterval ETV
vector 19 DatabaseNetwork.user[19] AccessInterval ETV
vector 20 DatabaseNetwork.user[20] AccessInterval ETV
vector 21 DatabaseNetwork.user[21] AccessInterval ETV
vector 22 DatabaseNetwork.user[22] AccessInterval ETV
vector 23 DatabaseNetwork.user[23] AccessInterval ETV
vector 24 DatabaseNetwork.user[24] AccessInterval ETV
vector 25 DatabaseNetwork.user[25] AccessInterval ETV
vector 26 DatabaseNetwork.user[26] AccessInterval ETV
vector 27 DatabaseNetwork.user[27] AccessInterval ETV
vector 28 DatabaseNetwork.user[28] AccessInterval ETV
vector 29 DatabaseNetwork.user[29] AccessInterval ETV
vector 30 DatabaseNetwork.user[30] AccessInterval ETV
vector 31 DatabaseNetwork.user[31] AccessInterval ETV
vector 32 DatabaseNetwork.user[32] AccessInterval ETV
vector 33 DatabaseNetwork.user[33] AccessInterval ETV
vector 34 DatabaseNetwork.user[34] AccessInterval ETV
vector 35 DatabaseNetwork.user[35] AccessInterval ETV
vector 36 DatabaseNetwork.user[36] AccessInterval ETV
vector 37 DatabaseNetwork.user[37] AccessInterval ETV
vector 38 DatabaseNetwork.user[38] AccessInterval ETV
vector 39 DatabaseNetwork.user[39] AccessInterval ETV
vector 40 DatabaseNetwork.user[40] AccessInterval ETV
vector 41 DatabaseNetwork.user[41] AccessInterval ETV
vector 42 DatabaseNetwork.user[42] AccessInterval ETV
vector 43 DatabaseNetwork.user[43] AccessInterval ETV
vector 44 DatabaseNetwork.user[44] AccessInterval ETV
vector 45 DatabaseNetwork.user[45] AccessInterval ETV
vector 46 DatabaseNetwork.user[46] AccessInterval ETV
vector 47 DatabaseNetwork.user[47] AccessInterval ETV
vector 48 DatabaseNetwork.user[48] AccessInterval ETV
vector 49 DatabaseNetwork.user[49] AccessInterval ETV
vector 50 DatabaseNetwork.user[32] ReadAccesses ETV
vector 51 DatabaseNetwork.user[32] WaitTime ETV
vector 52 DatabaseNetwork.user[15] ReadAccesses ETV
vector 53 DatabaseNetwork.user[15] WaitTime ETV
vector 54 DatabaseNetwork.user[28] ReadAccesses ETV
vector 55 DatabaseNetwork.user[28] WaitTime ETV
vector 56 DatabaseNetwork.user[30] ReadAccesses ETV
vector 57 DatabaseNetwork.user[30] WaitTime ETV
vector 58 DatabaseNetwork.user[48] ReadAccesses ETV
vector 59 DatabaseNetwork.user[48] WaitTime ETV
vector 60 DatabaseNetwork.user[37] ReadAccesses ETV
vector 61 DatabaseNetwork.user[37] WaitTime ETV
vector 62 DatabaseNetwork.user[15] WriteAccesses ETV
vector 63 DatabaseNetwork.user[17] ReadAccesses ETV
vector 64 DatabaseNetwork.user[17] WaitTime ETV
vector 65 DatabaseNetwork.user[13] ReadAccesses ETV
vector 66 DatabaseNetwork.user[13] WaitTime ETV
vector 67 DatabaseNetwork.user[29] ReadAccesses ETV
vector 68 DatabaseNetwork.user[29] WaitTime ETV
vector 69 DatabaseNetwork.user[17] WriteAccesses ETV
vector 70 DatabaseNetwork.user[33] ReadAccesses ETV
vector 71 DatabaseNetwork.user[33] WaitTime ETV
vector 72 DatabaseNetwork.user[18] ReadAccesses ETV
vector 73 DatabaseNetwork.user[11] ReadAccesses ETV
vector 74 DatabaseNetwork.user[18] WaitTime ETV
vector 75 DatabaseNetwork.user[11] WaitTime ETV
vector 76 DatabaseNetwork.user[25] ReadAccesses ETV
vector 77 DatabaseNetwork.user[25] WaitTime ETV
vector 78 DatabaseNetwork.user[8] WriteAccesses ETV
vector 79 DatabaseNetwork.user[8] WaitTime ETV
vector 80 DatabaseNetwork.user[12] WriteAccesses ETV
vector 81 DatabaseNetwork.user[12] WaitTime ETV
vector 82 DatabaseNetwork.user[44] WriteAccesses ETV
vector 83 DatabaseNetwork.user[44] WaitTime ETV
vector 84 DatabaseNetwork.user[41] WriteAccesses ETV
vector 85 DatabaseNetwork.user[41] WaitTime ETV
vector 86 DatabaseNetwork.user[19] ReadAccesses ETV
vector 87 DatabaseNetwork.user[23] ReadAccesses ETV
vector 88 DatabaseNetwork.user[19] WaitTime ETV
vector 89 DatabaseNetwork.user[23] WaitTime ETV
vector 90 DatabaseNetwork.user[41] ReadAccesses ETV
vector 91 DatabaseNetwork.user[44] ReadAccesses ETV
vector 92 DatabaseNetwork.user[45] ReadAccesses ETV
vector 93 DatabaseNetwork.user[45] WaitTime ETV
vector 94 DatabaseNetwork.user[22] ReadAccesses ETV
vector 95 DatabaseNetwork.user[22] WaitTime ETV
vector 96 DatabaseNetwork.user[6] ReadAccesses ETV
vector 97 DatabaseNetwork.user[6] WaitTime ETV
vector 98 DatabaseNetwork.user[0] ReadAccesses ETV
vector 99 DatabaseNetwork.user[0] WaitTime ETV
vector 100 DatabaseNetwork.user[24] WriteAccesses ETV
vector 101 DatabaseNetwork.user[24] WaitTime ETV
vector 102 DatabaseNetwork.user[25] WriteAccesses ETV
vector 103 DatabaseNetwork.user[1] ReadAccesses ETV
vector 104 DatabaseNetwork.user[1] WaitTime ETV
vector 105 DatabaseNetwork.user[4] ReadAccesses ETV
vector 106 DatabaseNetwork.user[4] WaitTime ETV
vector 107 DatabaseNetwork.user[9] ReadAccesses ETV
vector 108 DatabaseNetwork.user[9] WaitTime ETV
vector 109 DatabaseNetwork.user[10] WriteAccesses ETV
vector 110 DatabaseNetwork.user[10] WaitTime ETV
vector 111 DatabaseNetwork.user[31] WriteAccesses ETV
vector 112 DatabaseNetwork.user[31] WaitTime ETV
vector 113 DatabaseNetwork.user[9] WriteAccesses ETV
vector 114 DatabaseNetwork.user[13] WriteAccesses ETV
vector 115 DatabaseNetwork.user[18] WriteAccesses ETV
vector 116 DatabaseNetwork.user[47] ReadAccesses ETV
vector 117 DatabaseNetwork.user[47] WaitTime ETV
vector 118 DatabaseNetwork.user[2] ReadAccesses ETV
vector 119 DatabaseNetwork.user[2] WaitTime ETV
vector 120 DatabaseNetwork.user[49] ReadAccesses ETV
vector 121 DatabaseNetwork.user[49] WaitTime ETV
vector 122 DatabaseNetwork.user[24] ReadAccesses ETV
vector 123 DatabaseNetwork.user[23] WriteAccesses ETV
vector 124 DatabaseNetwork.user[31] ReadAccesses ETV
vector 125 DatabaseNetwork.user[49] WriteAccesses ETV
vector 126 DatabaseNetwork.user[36] ReadAccesses ETV
vector 127 DatabaseNetwork.user[36] WaitTime ETV
vector 128 DatabaseNetwork.user[46] ReadAccesses ETV
vector 129 DatabaseNetwork.user[4] WriteAccesses ETV
vector 130 DatabaseNetwork.user[46] WaitTime ETV
vector 131 DatabaseNetwork.user[36] WriteAccesses ETV
vector 132 DatabaseNetwork.user[20] ReadAccesses ETV
vector 133 DatabaseNetwork.user[20] WaitTime ETV
vector 134 DatabaseNetwork.user[42] ReadAccesses ETV
vector 135 DatabaseNetwork.user[32] WriteAccesses ETV
vector 136 DatabaseNetwork.user[42] WaitTime ETV
vector 137 DatabaseNetwork.user[43] ReadAccesses ETV
vector 138 DatabaseNetwork.user[43] WaitTime ETV
vector 139 DatabaseNetwork.user[21] ReadAccesses ETV
vector 140 DatabaseNetwork.user[21] WaitTime ETV
vector 141 DatabaseNetwork.user[33] WriteAccesses ETV
vector 142 DatabaseNetwork.user[34] WriteAccesses ETV
vector 143 DatabaseNetwork.user[34] WaitTime ETV
vector 144 DatabaseNetwork.user[27] ReadAccesses ETV
vector 145 DatabaseNetwork.user[27] WaitTime ETV
vector 146 DatabaseNetwork.user[3] ReadAccesses ETV
vector 147 DatabaseNetwork.user[3] WaitTime ETV
vector 148 DatabaseNetwork.user[7] ReadAccesses ETV
vector 149 DatabaseNetwork.user[7] WaitTime ETV
vector 150 DatabaseNetwork.user[5] ReadAccesses ETV
vector 151 DatabaseNetwork.user[5] WaitTime ETV
vector 152 DatabaseNetwork.user[8] ReadAccesses ETV
vector 153 DatabaseNetwork.user[38] ReadAccesses ETV
vector 154 DatabaseNetwork.user[39] ReadAccesses ETV
vector 155 DatabaseNetwork.user[38] WaitTime ETV
vector 156 DatabaseNetwork.user[39] WaitTime ETV
vector 157 DatabaseNetwork.user[47] WriteAccesses ETV
vector 158 DatabaseNetwork.user[14] ReadAccesses ETV
vector 159 DatabaseNetwork.user[14] WaitTime ETV
vector 160 DatabaseNetwork.user[20] WriteAccesses ETV
vector 161 DatabaseNetwork.user[43] WriteAccesses ETV
vector 162 DatabaseNetwork.user[26] ReadAccesses ETV
vector 163 DatabaseNetwork.user[26] WaitTime ETV
vector 164 DatabaseNetwork.user[2] WriteAccesses ETV
vector 165 DatabaseNetwork.user[12] ReadAccesses ETV
vector 166 DatabaseNetwork.user[45] WriteAccesses ETV
vector 167 DatabaseNetwork.user[29] WriteAccesses ETV
vector 168 DatabaseNetwork.user[21] WriteAccesses ETV
vector 169 DatabaseNetwork.user[5] WriteAccesses ETV
vector 170 DatabaseNetwork.user[10] ReadAccesses ETV
vector 171 DatabaseNetwork.user[35] ReadAccesses ETV
vector 172 DatabaseNetwork.user[35] WaitTime ETV
vector 173 DatabaseNetwork.user[16] WriteAccesses ETV
vector 174 DatabaseNetwork.user[16] WaitTime ETV
vector 175 DatabaseNetwork.user[26] WriteAccesses ETV
vector 176 DatabaseNetwork.user[6] WriteAccesses ETV
vector 177 DatabaseNetwork.user[30] WriteAccesses ETV
vector 178 DatabaseNetwork.user[34] ReadAccesses ETV
vector 179 DatabaseNetwork.user[40] ReadAccesses ETV
vector 180 DatabaseNetwork.user[40] WaitTime ETV
vector 181 DatabaseNetwork.user[1] WriteAccesses ETV
vector 182 DatabaseNetwork.user[48] WriteAccesses ETV
vector 183 DatabaseNetwork.user[46] WriteAccesses ETV
vector 184 DatabaseNetwork.user[28] WriteAccesses ETV
vector 185 DatabaseNetwork.user[14] WriteAccesses ETV
vector 186 DatabaseNetwork.user[40] WriteAccesses ETV
vector 187 DatabaseNetwork.user[11] WriteAccesses ETV
vector 188 DatabaseNetwork.user[16] ReadAccesses ETV
vector 189 DatabaseNetwork.user[3] WriteAccesses ETV
vector 190 DatabaseNetwork.user[7] WriteAccesses ETV
vector 191 DatabaseNetwork.user[22] WriteAccesses ETV
vector 192 DatabaseNetwork.user[37] WriteAccesses ETV
vector 193 DatabaseNetwork.user[19] WriteAccesses ETV
vector 194 DatabaseNetwork.user[0] WriteAccesses ETV
vector 195 DatabaseNetwork.user[27] WriteAccesses ETV
vector 196 DatabaseNetwork.user[39] WriteAccesses ETV
vector 197 DatabaseNetwork.user[42] WriteAccesses ETV
vector 198 DatabaseNetwork.user[35] WriteAccesses ETV
vector 199 DatabaseNetwork.user[38] WriteAccesses ETV
0	0	0	15.917490091316
0	131	15.917490091316	20.835613083589
0	345	36.753103174905	1.1614472423193
0	361	37.914550417224	13.024614638352
0	481	50.939165055576	24.31380946717
0	729	75.252974522746	55.212089113666
0	1357	130.465063636412	0.17455792613719
0	1361	130.639621562549	3.1163837222013
0	1407	133.75600528475	20.564106365737
0	1605	154.320111650487	3.4210363808136
0	1647	157.741148031301	72.173100338597
0	2345	229.914248369898	3.0986863137581
0	2373	233.012934683656	0.18838813118577
0	2377	233.201322814842	30.582444685283
0	2685	263.783767500125	30.4185173274
0	2969	294.202284827525	19.762015295544
0	3161	313.964300123069	17.889162803993
0	3357	331.853462927062	0.20433915886
0	3361	332.057802085922	37.116767665148
0	3757	369.17456975107	71.143016573313
0	4417	440.317586324383	53.093464745553
0	4921	493.411051069936	58.157609545028
0	5481	551.568660614964	40.266050446122
0	5865	591.834711061086	70.704130657539
0	6637	662.538841718625	3.5915547349375
0	6685	666.130396453562	32.001837020971
0	6961	698.132233474533	56.853156360499
0	7529	754.985389835032	22.548723970532
0	7733	777.534113805565	1.8414462121971
0	7761	779.375560017762	8.7545881620312
0	7829	788.130148179793	17.969629911221
0	7993	806.099778091014	12.205869503219
0	8153	818.305647594233	53.436333484767
0	8681	871.741981079	31.293234227422
0	8953	903.035215306422	17.171372505036
0	9105	920.206587811458	5.5050342097455
0	9185	925.711622021204	46.008874108424
0	9729	971.720496129628	21.705485255021
0	9917	993.425981384649	59.735541660859
0	10389	1053.161523045508	0.71569545779948
0	10411	1053.877218503307	13.570430829685
0	10533	1067.447649332992	18.924786800535
0	10701	1086.372436133527	28.105531339064
0	10981	1114.477967472591	1.4972050929623
0	11001	1115.975172565553	0.84973862441189
0	11013	1116.824911189965	6.1617254955709
0	11089	1122.986636685536	10.232171455634
0	11187	1133.21880814117	36.883857352696
0	11569	1170.102665493866	13.872863044903
0	11677	1183.975528538769	13.384022436034
0	11837	1197.359550974803	4.0641081645695
0	11879	1201.423659139373	4.4703284149936
0	11945	1205.893987554367	20.177413290229
0	12169	1226.071400844596	0.45257870666015
0	12185	1226.523979551256	9.5037829629996
0	12265	1236.027762514256	14.665938764013
0	12425	1250.693701278269	10.657853429558
0	12531	1261.351554707827	6.884491362106
0	12609	1268.236046069933	46.867665006898
0	13133	1315.103711076831	13.068919109255
0	13275	1328.172630186086	16.859801661634
0	13481	1345.03243184772	15.465172161512
0	13641	1360.497604009232	7.163564596614
0	13705	1367.661168605846	15.065194988349
0	13869	1382.726363594195	14.15503884789
0	14029	1396.881402442085	30.166112612388
0	14365	1427.047515054473	49.522788776334
0	14821	1476.570303830807	17.639930740688
0	14993	1494.210234571495	6.4264232714281
0	15089	1500.636657842923	18.681388329059
0	15237	1519.318046171982	14.942496080474
0	15413	1534.260542252456	10.634550447617
0	15525	1544.895092700073	91.668505939436
0	16343	1636.563598639509	11.196511555537
0	16505	1647.760110195046	66.560446879805
0	17155	1714.320557074851	78.844025318187
0	18041	1793.164582393038	6.9318788691155
0	18133	1800.096461262153	0.21365412954289
0	18145	1800.310115391696	9.8427662874506
0	18241	1810.152881679147	3.1657452072597
0	18275	1813.318626886407	24.249560961282
0	18541	1837.568187847689	15.26936229667
0	18701	1852.837550144359	14.911809452035
0	18889	1867.749359596394	75.215949182578
0	19685	1942.965308778972	15.526731347713
0	19857	1958.492040126685	0.67787655884619
0	19865	1959.169916685531	12.693389393954
0	20025	1971.863306079485	4.8930096807006
0	20077	1976.756315760186	53.14628437692
0	20629	2029.902600137106	17.598916150347
0	20833	2047.501516287453	1.4466493837953
0	20851	2048.948165671248	19.493604319932
0	21045	2068.44176999118	54.683817205104
0	21551	2123.125587196284	22.368594330249
0	21773	2145.494181526533	27.291067211683
0	22061	2172.785248738216	8.9156754064387
0	22163	2181.700924144655	0.11433341971699
0	22169	2181.815257564372	11.555119682786
0	22265	2193.370377247158	22.751719735632
0	22499	2216.12209698279	32.688671928978
0	22813	2248.810768911768	18.152008553936
0	22953	2266.962777465704	27.996434857262
0	23241	2294.959212322966	0.58520273395514
0	23253	2295.544415056921	33.638685776189
0	23565	2329.18310083311	38.225690709303
0	23929	2367.408791542413	11.250791909249
0	24013	2378.659583451662	0.40205547155194
0	24021	2379.061638923214	9.5028650635288
0	24079	2388.564503986743	19.316566287239
0	24235	2407.881070273982	3.0318907462583
0	24251	2410.91296102024	23.416041131563
0	24481	2434.329002151803	8.2055289738689
0	24565	2442.534531125672	45.222941268144
0	25073	2487.757472393816	8.5499774721234
0	25125	2496.307449865939	36.967883842769
0	25539	2533.275333708708	6.4083476694009
0	25623	2539.683681378109	4.6472086580387
0	25661	2544.330890036148	0.82933902107854
0	25673	2545.160229057227	60.93858945235
0	26301	2606.098818509577	43.801699967817
0	26819	2649.900518477394	28.221898508223
0	27105	2678.122416985617	4.4031302839898
0	27149	2682.525547269607	12.138776042392
0	27297	2694.664323311999	16.297688928623
0	27509	2710.962012240622	1.6023404439164
0	27529	2712.564352684538	57.166904269739
0	28141	2769.731256954277	17.622361033854
0	28309	2787.353617988131	14.539127770239
0	28445	2801.89274575837	1.1915244354165
0	28465	2803.084270193786	9.9204376234131
0	28529	2813.004707817199	14.345537721816
0	28721	2827.350245539015	22.675866436524
0	28937	2850.026111975539	3.257947810193
0	28965	2853.284059785732	4.5216153839506
0	29017	2857.805675169683	18.412639757535
0	29257	2876.218314927218	2.2924105220626
0	29275	2878.510725449281	6.5553973497043
0	29363	2885.066122798985	3.9141275210928
0	29389	2888.980250320078	5.8117781244768
0	29437	2894.792028444555	3.9740994023167
0	29469	2898.766127846872	16.399740345732
0	29641	2915.165868192604	34.821553128471
0	29973	2949.987421321075	1.0048076339572
0	29977	2950.992228955032	20.992250522209
0	30173	2971.984479477241	15.747284190672
0	30327	2987.731763667913	14.012160351548
0	30461	3001.743924019461	13.576709368671
0	30601	3015.320633388132	76.125494830248
0	31321	3091.44612821838	2.066980353396
0	31345	3093.513108571776	77.901494308087
0	32125	3171.414602879863	38.157464932555
0	32445	3209.572067812418	4.9299377511575
0	32485	3214.502005563576	59.658998954159
0	33139	3274.161004517735	52.341184131723
0	33609	3326.502188649458	14.880683131364
0	33741	3341.382871780822	13.266954920653
0	33861	3354.649826701475	27.509860050278
0	34125	3382.159686751753	36.960350288461
0	34461	3419.120037040214	5.80460352315
0	34533	3424.924640563364	2.1725911516926
0	34557	3427.097231715057	2.5119656725485
0	34581	3429.609197387605	14.616704239135
0	34725	3444.22590162674	11.400817742669
0	34829	3455.626719369409	11.231152441251
0	34917	3466.85787181066	14.032380699
0	35081	3480.89025250966	21.845666365186
0	35277	3502.735918874846	35.053780527517
0	35605	3537.789699402363	17.892760150747
0	35815	3555.68245955311	9.4419384564298
0	35933	3565.12439800954	27.410795439576
0	36217	3592.535193449116	4.1547593092932
0	36279	3596.689952758409	23.5862019272
0	36481	3620.276154685609	22.081003937729
0	36701	3642.357158623338	19.260508815023
0	36893	3661.617667438361	0.24370036935601
0	36897	3661.861367807717	27.629485136169
0	37165	3689.490852943886	39.900974714391
0	37537	3729.391827658277	24.149714905841
0	37825	3753.541542564118	0.27374547189511
0	37839	3753.815288036013	21.082411294698
0	38035	3774.897699330711	51.230940490034
0	38617	3826.128639820745	36.260209873777
0	39009	3862.388849694522	42.052137106885
0	39417	3904.440986801407	24.358375063316
0	39617	3928.799361864723	1.8302578074319
0	39637	3930.629619672155	1.64535487929
0	39653	3932.274974551445	27.387669795727
0	39881	3959.662644347172	1.6981590893297
0	39911	3961.360803436502	4.1634761064257
0	39941	3965.524279542928	4.5300342460223
0	39997	3970.05431378895	0.26770417310272
0	40001	3970.322017962053	11.690420788526
0	40101	3982.012438750579	45.908431154961
0	40597	4027.92086990554	11.150840477287
0	40689	4039.071710382827	10.530467324791
0	40785	4049.602177707618	4.9162851481369
0	40859	4054.518462855755	3.0500012487255
0	40933	4057.56846410448	3.4288007555838
0	40969	4060.997264860064	65.220699599878
0	41639	4126.217964459942	24.169478794272
0	41877	4150.387443254214	12.738177868088
0	41985	4163.125621122302	23.862235082688
0	42219	4186.98785620499	20.304972728456
0	42421	4207.292828933446	18.243442595023
0	42557	4225.536271528469	7.2382940002986
0	42621	4232.774565528768	16.90004894782
0	42771	4249.674614476588	21.147312646351
0	42981	4270.821927122939	14.520728232525
0	43081	4285.342655355464	4.5513897135221
0	43109	4289.894045068986	38.805444505632
0	43501	4328.699489574618	0.52272746449354
0	43519	4329.222217039112	74.539157853043
0	44269	4403.761374892155	8.5190241836707
0	44321	4412.280399075826	75.672895057289
0	45075	4487.953294133115	15.507245803766
0	45269	4503.460539936881	21.049818906084
0	45489	4524.510358842965	28.521186868053
0	45765	4553.031545711018	3.005119793533
0	45803	4556.036665504551	22.2584506491
0	45997	4578.295116153651	14.377701021705
0	46137	4592.672817175356	3.3306376661424
0	46173	4596.003454841498	23.221191540704
0	46437	4619.224646382202	19.115192623869
0	46653	4638.339839006071	23.971950506936
0	46881	4662.311789513007	55.550133875709
0	47413	4717.861923388716	15.501373403472
0	47573	4733.363296792188	4.668593169302
0	47605	4738.03188996149	11.249015225069
0	47733	4749.280905186559	9.3417434816091
0	47837	4758.622648668168	15.980374170414
0	48015	4774.603022838582	22.172807868995
0	48213	4796.775830707577	28.627231783014
0	48491	4825.403062490591	0.55400605246828
0	48497	4825.957068543059	20.28105802336
0	48687	4846.238126566419	12.990425560486
0	48839	4859.228552126905	2.6104086324575
0	48877	4861.838960759362	43.394687805052
0	49305	4905.233648564414	1.082186149695
0	49337	4906.315834714109	0.63072656734608
0	49343	4906.946561281455	12.251397890138
0	49473	4919.197959171593	10.32610344197
0	49551	4929.524062613563	3.4599197279366
0	49585	4932.9839823415	2.8457321572948
0	49633	4935.829714498795	11.261551192671
0	49741	4947.091265691466	44.018292126734
0	50119	4991.1095578182	23.092955126602
0	50349	5014.202512944802	8.3862357036839
0	50413	5022.588748648486	32.263997540675
0	50769	5054.852746189161	3.8476373669461
0	50793	5058.700383556107	2.5954956633304
0	50837	5061.295879219437	10.733861231195
0	50949	5072.029740450632	14.750631668183
0	51095	5086.780372118815	26.851334105762
0	51329	5113.631706224577	16.821104020658
0	51457	5130.452810245235	4.4929426277786
0	51513	5134.945752873014	29.597045905356
0	51785	5164.54279877837	46.004264371062
0	52211	5210.547063149432	11.614496222025
0	52297	5222.161559371457	5.3439301556559
0	52359	5227.505489527113	3.7667587110602
0	52393	5231.272248238173	33.590973141245
0	52781	5264.863221379418	12.588994144219
0	52869	5277.452215523637	20.479056664861
0	53101	5297.931272188498	4.8934281258313
0	53169	5302.824700314329	2.3592683505852
0	53205	5305.183968664914	22.177469959179
0	53443	5327.361438624093	13.720654555945
0	53557	5341.082093180038	11.548626760911
0	53695	5352.630719940949	28.701002982683
0	54001	5381.331722923632	21.921235352833
0	54249	5403.252958276465	10.658448081978
0	54349	5413.911406358443	0.75184248307663
0	54361	5414.66324884152	8.5033043077552
0	54469	5423.166553149275	6.0476740727251
0	54525	5429.214227222	2.0965750906218
0	54543	5431.310802312622	9.5451688750283
0	54625	5440.85597118765	5.1216622497348
0	54675	5445.977633437385	1.3935534977148
0	54697	5447.3711869351	33.102565374778
0	54985	5480.473752309878	2.5542617595503
0	55009	5483.028014069428	9.7237295697242
0	55103	5492.751743639152	62.535079343552
0	55665	5555.286822982704	10.25881030344
0	55749	5565.545633286144	33.163343407389
0	56021	5598.708976693533	69.179720158161
0	56761	5667.888696851694	14.549885289269
0	56953	5682.438582140963	82.203419291679
0	57673	5764.642001432642	13.090713718629
0	57805	5777.732715151271	4.9140163742189
0	57869	5782.64673152549	2.2018402225845
0	57911	5784.848571748074	22.216893609612
0	58133	5807.065465357686	31.166595680748
0	58421	5838.232061038434	9.231427962876
0	58513	5847.46348900131	31.920931825716
0	58837	5879.384420827026	10.793722435935
0	58949	5890.178143262961	6.4466671776425
0	59005	5896.624810440603	2.8795006403381
0	59033	5899.504311080941	30.901959186406
0	59339	5930.406270267347	10.002638267025
0	59419	5940.408908534372	0.55520908707734
0	59429	5940.964117621449	15.537891169915
0	59579	5956.502008791364	11.468712116595
0	59661	5967.970720907959	7.9138699783639
0	59755	5975.884590886323	49.087719380105
0	60209	6024.972310266428	1.1100847400416
0	60225	6026.08239500647	25.841269314084
0	60465	6051.923664320554	35.807604202021
0	60841	6087.731268522575	0.50149458576648
0	60845	6088.232763108341	33.855523897753
0	61193	6122.088287006094	2.3645174869582
0	61217	6124.452804493052	28.286247204806
0	61501	6152.739051697858	6.9870395547282
0	61569	6159.726091252586	6.2850521891312
0	61653	6166.011143441717	6.167234369356
0	61697	6172.178377811073	22.439021203832
0	61957	6194.617399014905	6.4277875593805
0	62017	6201.045186574286	12.866855027752
0	62163	6213.912041602038	25.84157191623
0	62445	6239.753613518268	22.750663313522
0	62637	6262.50427683179	14.175605252796
0	62803	6276.679882084586	4.6030878337688
0	62837	6281.282969918355	13.019399189633
0	62959	6294.302369107988	4.4970565849893
0	63017	6298.799425692977	10.970083047997
0	63111	6309.769508740974	14.397868180257
0	63271	6324.167376921231	50.917354107498
0	63837	6375.084731028729	1.5769206188791
0	63855	6376.661651647608	81.597048577916
0	64697	6458.258700225524	68.520114584927
0	65455	6526.778814810451	14.141528810874
0	65613	6540.920343621325	4.5447724969146
0	65643	6545.46511611824	5.3750225394393
0	65697	6550.840138657679	48.016282992133
0	66225	6598.856421649812	0.84484296888392
0	66229	6599.701264618696	4.8418871463529
0	66277	6604.543151765049	2.9005130079385
0	66317	6607.443664772988	7.9580071183542
0	66389	6615.401671891342	1.4905073232451
0	66417	6616.892179214587	52.23764979558
0	66879	6669.129829010167	8.3138005596632
0	66969	6677.44362956983	26.03076512705
0	67245	6703.47439469688	8.2490634630787
0	67351	6711.723458159959	42.302450930907
0	67849	6754.025909090866	6.3428447140562
0	67945	6760.368753804922	1.0426451577224
0	67961	6761.411398962644	2.4485447240776
0	67997	6763.859943686722	7.8890925714803
0	68073	6771.749036258202	7.527785396026
0	68177	6779.276821654228	27.977334777318
0	68485	6807.254156431546	14.687271225506
0	68593	6821.941427657052	46.251622548098
0	69041	6868.19305020515	1.9631293834465
0	69065	6870.156179588597	9.744936042094
0	69165	6879.901115630691	2.0005720287345
0	69183	6881.901687659426	3.5144440029505
0	69225	6885.416131662377	6.7149850496714
0	69265	6892.131116712048	0.22779577670126
0	69273	6892.358912488749	45.007700878063
0	69829	6937.366613366812	31.956890157485
0	70165	6969.323503524297	52.955280518525
0	70693	7022.278784042822	61.632966055238
0	71253	7083.91175009806	1.666913683002
0	71277	7085.578663781062	20.720067271875
0	71495	7106.298731052937	34.432104103533
0	71829	7140.73083515647	19.913426134817
0	72061	7160.644261291287	15.202647958365
0	72257	7175.846909249652	19.322012718046
0	72425	7195.168921967698	9.5215056143272
0	72517	7204.690427582025	5.6653471862889
0	72553	7210.355774768314	43.682093135429
0	73009	7254.037867903743	12.848436657291
0	73097	7266.886304561034	5.4642259762214
0	73153	7272.350530537255	16.817540002042
0	73311	7289.168070539297	2.8019875381895
0	73351	7291.970058077486	14.341282533174
0	73517	7306.31134061066	6.2746172021668
0	73581	7312.585957812827	2.9048031231396
0	73605	7315.490760935967	13.376446127481
0	73733	7328.867207063448	34.158157337792
0	74079	7363.02536440124	16.272154828157
0	74281	7379.297519229397	38.864120744101
0	74681	7418.161639973498	1.6878349422663
0	74713	7419.849474915764	11.345506193387
0	74845	7431.194981109151	13.508899350541
0	74989	7444.703880459692	7.7295120595523
0	75061	7452.433392519244	3.3890720080698
0	75093	7455.822464527314	6.535941027264
0	75165	7462.358405554578	3.6492356677116
0	75189	7466.00764122229	19.185969068192
0	75393	7485.193610290482	16.556891523869
0	75555	7501.750501814351	18.357777023915
0	75737	7520.108278838266	20.678409511911
0	75909	7540.786688350177	0.49660426418709
0	75919	7541.283292614364	10.063504748864
0	76021	7551.346797363228	5.6567987273414
0	76077	7557.003596090569	17.91850626313
0	76253	7574.922102353699	41.00202573209
0	76665	7615.924128085789	28.137797696071
0	76965	7644.06192578186	19.653280751106
0	77149	7663.715206532966	25.651624999686
0	77423	7689.366831532652	2.425690428837
0	77449	7691.792521961489	19.841502731542
0	77633	7711.634024693031	23.005964002691
0	77841	7734.639988695722	4.3742331271249
0	77877	7739.014221822847	22.497541665646
0	78119	7761.511763488493	25.744541305726
0	78365	7787.256304794219	35.462217568689
0	78681	7822.718522362908	2.9300065401527
0	78699	7825.648528903061	52.649402737623
0	79205	7878.297931640684	10.635492151824
0	79313	7888.933423792508	13.060063479577
0	79455	7901.993487272085	1.9119735618869
0	79477	7903.905460833972	6.5895909171189
0	79545	7910.495051751091	20.733087765299
0	79745	7931.22813951639	29.113502644735
0	80017	7960.341642161125	3.7511723194383
0	80047	7964.092814480563	8.2181909899859
0	80147	7972.311005470549	71.099106791638
0	80851	8043.410112262187	2.3124143422094
0	80869	8045.722526604396	44.424066153741
0	81305	8090.146592758137	2.7026723748643
0	81325	8092.849265133001	16.326099774497
0	81485	8109.175364907498	63.304321560564
0	82073	8172.479686468062	3.9129227954359
0	82105	8176.392609263498	33.746903456258
0	82397	8210.139512719756	3.6245626648877
0	82409	8213.764075384644	33.030317727505
0	82757	8246.794393112149	0.5727399899514
0	82763	8247.3671331021	32.910408472618
0	83125	8280.277541574718	4.8014203049588
0	83177	8285.078961879677	29.66982341634
0	83473	8314.748785296017	2.0414655998097
0	83495	8316.790250895827	9.4929631320208
0	83593	8326.283214027848	10.426197550638
0	83705	8336.709411578486	8.261345576549
0	83797	8344.970757155035	15.616312646183
0	83935	8360.587069801218	16.305018625114
0	84063	8376.892088426332	1.9364953363341
0	84089	8378.828583762666	3.0428494082093
0	84121	8381.871433170875	35.9294040909
0	84421	8417.800837261775	20.477852163672
0	84693	8438.278689425447	5.0900155228553