file 2897632 1767629703                                         
version 3
run Uniform-11-20260105-17:15:03-28078
attr configname Uniform
attr datetime 20260105-17:15:03
attr datetimef 20260105-171503
attr experiment Uniform
attr inifile omnetpp.ini
attr iterationvars "$N=50, $p=0.7"
attr iterationvarsd N=50/p=0.7
attr iterationvarsf N=50,p=0.7-
attr measurement "$N=50, $p=0.7"
attr network progetto.DatabaseNetwork
attr processid 28078
attr repetition 1
attr replication #1
attr resultdir results
attr runnumber 11
attr seedset 1
itervar N 50
itervar p 0.7
config description "Uniform distribution - varia N e p"
config *.user[*].tableDistribution "\"uniform\""
config *.numUsers 50
config *.user[*].readProbability 0.7
config network progetto.DatabaseNetwork
config sim-time-limit 10000s
config cpu-time-limit 3600s
config repeat 5
config seed-set 1
config output-vector-file "results/Uniform-$N=50, $p=0.7-1.vec"
config output-scalar-file "results/Uniform-$N=50, $p=0.7-1.sca"
config result-dir results
config **.vector-recording true
config **.scalar-recording true
config *.numTables 20
config *.user[*].lambda 0.05
config *.user[*].serviceTime 0.1s

vector 0 DatabaseNetwork.user[0] AccessInterval ETV
vector 1 DatabaseNetwork.user[1] AccessInterval ETV
vector 2 DatabaseNetwork.user[2] AccessInterval ETV
vector 3 DatabaseNetwork.user[3] AccessInterval ETV
vector 4 DatabaseNetwork.user[4] AccessInterval ETV
vector 5 DatabaseNetwork.user[5] AccessInterval ETV
vector 6 DatabaseNetwork.user[6] AccessInterval ETV
vector 7 DatabaseNetwork.user[7] AccessInterval ETV
vector 8 DatabaseNetwork.user[8] AccessInterval ETV
vector 9 DatabaseNetwork.user[9] AccessInterval ETV
vector 10 DatabaseNetwork.user[10] AccessInterval ETV
vector 11 DatabaseNetwork.user[11] AccessInterval ETV
vector 12 DatabaseNetwork.user[12] AccessInterval ETV
vector 13 DatabaseNetwork.user[13] AccessInterval ETV
vector 14 DatabaseNetwork.user[14] AccessInterval ETV
vector 15 DatabaseNetwork.user[15] AccessInterval ETV
vector 16 DatabaseNetwork.user[16] AccessInterval ETV
vector 17 DatabaseNetwork.user[17] AccessInterval ETV
vector 18 DatabaseNetwork.user[18] AccessInterval ETV
vector 19 DatabaseNetwork.user[19] AccessInterval ETV
vector 20 DatabaseNetwork.user[20] AccessInterval ETV
vector 21 DatabaseNetwork.user[21] AccessInterval ETV
vector 22 DatabaseNetwork.user[22] AccessInterval ETV
vector 23 DatabaseNetwork.user[23] AccessInterval ETV
vector 24 DatabaseNetwork.user[24] AccessInterval ETV
vector 25 DatabaseNetwork.user[25] AccessInterval ETV
vector 26 DatabaseNetwork.user[26] AccessInterval ETV
vector 27 DatabaseNetwork.user[27] AccessInterval ETV
vector 28 DatabaseNetwork.user[28] AccessInterval ETV
vector 29 DatabaseNetwork.user[29] AccessInterval ETV
vector 30 DatabaseNetwork.user[30] AccessInterval ETV
vector 31 DatabaseNetwork.user[31] AccessInterval ETV
vector 32 DatabaseNetwork.user[32] AccessInterval ETV
vector 33 DatabaseNetwork.user[33] AccessInterval ETV
vector 34 DatabaseNetwork.user[34] AccessInterval ETV
vector 35 DatabaseNetwork.user[35] AccessInterval ETV
vector 36 DatabaseNetwork.user[36] AccessInterval ETV
vector 37 DatabaseNetwork.user[37] AccessInterval ETV
vector 38 DatabaseNetwork.user[38] AccessInterval ETV
vector 39 DatabaseNetwork.user[39] AccessInterval ETV
vector 40 DatabaseNetwork.user[40] AccessInterval ETV
vector 41 DatabaseNetwork.user[41] AccessInterval ETV
vector 42 DatabaseNetwork.user[42] AccessInterval ETV
vector 43 DatabaseNetwork.user[43] AccessInterval ETV
vector 44 DatabaseNetwork.user[44] AccessInterval ETV
vector 45 DatabaseNetwork.user[45] AccessInterval ETV
vector 46 DatabaseNetwork.user[46] AccessInterval ETV
vector 47 DatabaseNetwork.user[47] AccessInterval ETV
vector 48 DatabaseNetwork.user[48] AccessInterval ETV
vector 49 DatabaseNetwork.user[49] AccessInterval ETV
vector 50 DatabaseNetwork.user[4] ReadAccesses ETV
vector 51 DatabaseNetwork.user[4] WaitTime ETV
vector 52 DatabaseNetwork.user[28] ReadAccesses ETV
vector 53 DatabaseNetwork.user[28] WaitTime ETV
vector 54 DatabaseNetwork.user[10] WriteAccesses ETV
vector 55 DatabaseNetwork.user[45] ReadAccesses ETV
vector 56 DatabaseNetwork.user[10] WaitTime ETV
vector 57 DatabaseNetwork.user[45] WaitTime ETV
vector 58 DatabaseNetwork.user[5] ReadAccesses ETV
vector 59 DatabaseNetwork.user[5] WaitTime ETV
vector 60 DatabaseNetwork.user[36] ReadAccesses ETV
vector 61 DatabaseNetwork.user[36] WaitTime ETV
vector 62 DatabaseNetwork.user[8] ReadAccesses ETV
vector 63 DatabaseNetwork.user[8] WaitTime ETV
vector 64 DatabaseNetwork.user[12] ReadAccesses ETV
vector 65 DatabaseNetwork.user[12] WaitTime ETV
vector 66 DatabaseNetwork.user[38] WriteAccesses ETV
vector 67 DatabaseNetwork.user[38] WaitTime ETV
vector 68 DatabaseNetwork.user[24] ReadAccesses ETV
vector 69 DatabaseNetwork.user[24] WaitTime ETV
vector 70 DatabaseNetwork.user[27] ReadAccesses ETV
vector 71 DatabaseNetwork.user[27] WaitTime ETV
vector 72 DatabaseNetwork.user[9] ReadAccesses ETV
vector 73 DatabaseNetwork.user[9] WaitTime ETV
vector 74 DatabaseNetwork.user[12] WriteAccesses ETV
vector 75 DatabaseNetwork.user[6] ReadAccesses ETV
vector 76 DatabaseNetwork.user[6] WaitTime ETV
vector 77 DatabaseNetwork.user[21] ReadAccesses ETV
vector 78 DatabaseNetwork.user[44] ReadAccesses ETV
vector 79 DatabaseNetwork.user[21] WaitTime ETV
vector 80 DatabaseNetwork.user[44] WaitTime ETV
vector 81 DatabaseNetwork.user[14] ReadAccesses ETV
vector 82 DatabaseNetwork.user[14] WaitTime ETV
vector 83 DatabaseNetwork.user[13] ReadAccesses ETV
vector 84 DatabaseNetwork.user[13] WaitTime ETV
vector 85 DatabaseNetwork.user[11] ReadAccesses ETV
vector 86 DatabaseNetwork.user[16] ReadAccesses ETV
vector 87 DatabaseNetwork.user[11] WaitTime ETV
vector 88 DatabaseNetwork.user[16] WaitTime ETV
vector 89 DatabaseNetwork.user[36] WriteAccesses ETV
vector 90 DatabaseNetwork.user[0] WriteAccesses ETV
vector 91 DatabaseNetwork.user[32] ReadAccesses ETV
vector 92 DatabaseNetwork.user[20] WriteAccesses ETV
vector 93 DatabaseNetwork.user[0] WaitTime ETV
vector 94 DatabaseNetwork.user[32] WaitTime ETV
vector 95 DatabaseNetwork.user[20] WaitTime ETV
vector 96 DatabaseNetwork.user[35] WriteAccesses ETV
vector 97 DatabaseNetwork.user[35] WaitTime ETV
vector 98 DatabaseNetwork.user[25] ReadAccesses ETV
vector 99 DatabaseNetwork.user[25] WaitTime ETV
vector 100 DatabaseNetwork.user[33] WriteAccesses ETV
vector 101 DatabaseNetwork.user[33] WaitTime ETV
vector 102 DatabaseNetwork.user[32] WriteAccesses ETV
vector 103 DatabaseNetwork.user[38] ReadAccesses ETV
vector 104 DatabaseNetwork.user[47] WriteAccesses ETV
vector 105 DatabaseNetwork.user[47] WaitTime ETV
vector 106 DatabaseNetwork.user[23] WriteAccesses ETV
vector 107 DatabaseNetwork.user[23] WaitTime ETV
vector 108 DatabaseNetwork.user[29] WriteAccesses ETV
vector 109 DatabaseNetwork.user[29] WaitTime ETV
vector 110 DatabaseNetwork.user[18] ReadAccesses ETV
vector 111 DatabaseNetwork.user[18] WaitTime ETV
vector 112 DatabaseNetwork.user[5] WriteAccesses ETV
vector 113 DatabaseNetwork.user[34] ReadAccesses ETV
vector 114 DatabaseNetwork.user[34] WaitTime ETV
vector 115 DatabaseNetwork.user[33] ReadAccesses ETV
vector 116 DatabaseNetwork.user[35] ReadAccesses ETV
vector 117 DatabaseNetwork.user[15] ReadAccesses ETV
vector 118 DatabaseNetwork.user[30] ReadAccesses ETV
vector 119 DatabaseNetwork.user[15] WaitTime ETV
vector 120 DatabaseNetwork.user[30] WaitTime ETV
vector 121 DatabaseNetwork.user[22] ReadAccesses ETV
vector 122 DatabaseNetwork.user[22] WaitTime ETV
vector 123 DatabaseNetwork.user[11] WriteAccesses ETV
vector 124 DatabaseNetwork.user[46] ReadAccesses ETV
vector 125 DatabaseNetwork.user[46] WaitTime ETV
vector 126 DatabaseNetwork.user[10] ReadAccesses ETV
vector 127 DatabaseNetwork.user[41] ReadAccesses ETV
vector 128 DatabaseNetwork.user[41] WaitTime ETV
vector 129 DatabaseNetwork.user[23] ReadAccesses ETV
vector 130 DatabaseNetwork.user[2] ReadAccesses ETV
vector 131 DatabaseNetwork.user[2] WaitTime ETV
vector 132 DatabaseNetwork.user[6] WriteAccesses ETV
vector 133 DatabaseNetwork.user[0] ReadAccesses ETV
vector 134 DatabaseNetwork.user[14] WriteAccesses ETV
vector 135 DatabaseNetwork.user[39] ReadAccesses ETV
vector 136 DatabaseNetwork.user[39] WaitTime ETV
vector 137 DatabaseNetwork.user[40] ReadAccesses ETV
vector 138 DatabaseNetwork.user[40] WaitTime ETV
vector 139 DatabaseNetwork.user[43] WriteAccesses ETV
vector 140 DatabaseNetwork.user[43] WaitTime ETV
vector 141 DatabaseNetwork.user[4] WriteAccesses ETV
vector 142 DatabaseNetwork.user[19] ReadAccesses ETV
vector 143 DatabaseNetwork.user[19] WaitTime ETV
vector 144 DatabaseNetwork.user[25] WriteAccesses ETV
vector 145 DatabaseNetwork.user[49] WriteAccesses ETV
vector 146 DatabaseNetwork.user[49] WaitTime ETV
vector 147 DatabaseNetwork.user[48] ReadAccesses ETV
vector 148 DatabaseNetwork.user[48] WaitTime ETV
vector 149 DatabaseNetwork.user[26] ReadAccesses ETV
vector 150 DatabaseNetwork.user[26] WaitTime ETV
vector 151 DatabaseNetwork.user[34] WriteAccesses ETV
vector 152 DatabaseNetwork.user[22] WriteAccesses ETV
vector 153 DatabaseNetwork.user[31] ReadAccesses ETV
vector 154 DatabaseNetwork.user[31] WaitTime ETV
vector 155 DatabaseNetwork.user[18] WriteAccesses ETV
vector 156 DatabaseNetwork.user[26] WriteAccesses ETV
vector 157 DatabaseNetwork.user[13] WriteAccesses ETV
vector 158 DatabaseNetwork.user[3] ReadAccesses ETV
vector 159 DatabaseNetwork.user[3] WaitTime ETV
vector 160 DatabaseNetwork.user[46] WriteAccesses ETV
vector 161 DatabaseNetwork.user[17] ReadAccesses ETV
vector 162 DatabaseNetwork.user[17] WaitTime ETV
vector 163 DatabaseNetwork.user[37] ReadAccesses ETV
vector 164 DatabaseNetwork.user[37] WaitTime ETV
vector 165 DatabaseNetwork.user[17] WriteAccesses ETV
vector 166 DatabaseNetwork.user[31] WriteAccesses ETV
vector 167 DatabaseNetwork.user[29] ReadAccesses ETV
vector 168 DatabaseNetwork.user[40] WriteAccesses ETV
vector 169 DatabaseNetwork.user[20] ReadAccesses ETV
vector 170 DatabaseNetwork.user[49] ReadAccesses ETV
vector 171 DatabaseNetwork.user[42] WriteAccesses ETV
vector 172 DatabaseNetwork.user[42] WaitTime ETV
vector 173 DatabaseNetwork.user[47] ReadAccesses ETV
vector 174 DatabaseNetwork.user[43] ReadAccesses ETV
vector 175 DatabaseNetwork.user[3] WriteAccesses ETV
vector 176 DatabaseNetwork.user[30] WriteAccesses ETV
vector 177 DatabaseNetwork.user[37] WriteAccesses ETV
vector 178 DatabaseNetwork.user[45] WriteAccesses ETV
vector 179 DatabaseNetwork.user[42] ReadAccesses ETV
vector 180 DatabaseNetwork.user[2] WriteAccesses ETV
vector 181 DatabaseNetwork.user[9] WriteAccesses ETV
vector 182 DatabaseNetwork.user[41] WriteAccesses ETV
vector 183 DatabaseNetwork.user[28] WriteAccesses ETV
vector 184 DatabaseNetwork.user[44] WriteAccesses ETV
vector 185 DatabaseNetwork.user[16] WriteAccesses ETV
vector 186 DatabaseNetwork.user[1] ReadAccesses ETV
vector 187 DatabaseNetwork.user[1] WaitTime ETV
vector 188 DatabaseNetwork.user[48] WriteAccesses ETV
vector 189 DatabaseNetwork.user[8] WriteAccesses ETV
vector 190 DatabaseNetwork.user[7] ReadAccesses ETV
vector 191 DatabaseNetwork.user[7] WaitTime ETV
vector 192 DatabaseNetwork.user[21] WriteAccesses ETV
vector 193 DatabaseNetwork.user[15] WriteAccesses ETV
vector 194 DatabaseNetwork.user[39] WriteAccesses ETV
vector 195 DatabaseNetwork.user[27] WriteAccesses ETV
vector 196 DatabaseNetwork.user[19] WriteAccesses ETV
vector 197 DatabaseNetwork.user[7] WriteAccesses ETV
vector 198 DatabaseNetwork.user[24] WriteAccesses ETV
vector 199 DatabaseNetwork.user[1] WriteAccesses ETV
0	11494 21839 0 98997 0 9975.889240837011 525 0.051234964984868 110.84295371163 10011.368786437 362107.65807604
1	33333 21463 0 98843 0 9963.033042025102 516 0.028812712126022 143.04623340627 10032.157358047 412635.44619447
2	54796 21431 0 99089 0 9987.549122327999 516 0.0096988255991887 138.69600834884 10022.653325311 389571.05528406
3	76227 20205 0 98447 0 9926.396825802517 486 0.0089321996753779 162.44347657589 10016.745022246 417749.54729922
4	96432 19144 0 99115 0 9990.11807412227 461 0.0022877524501596 143.15974534675 10006.388482198 422252.41762475
5	115576 20026 0 98677 0 9949.427426591918 482 0.16732727190766 188.71159600345 10022.980594614 423914.13925166
6	135602 21600 0 98909 0 9966.955448889771 520 0.0047694757447799 189.74195071835 10008.780151998 389988.02298529
7	157202 20360 0 99031 0 9980.456655506023 489 0.031380891463851 168.15603931475 10003.638152089 440802.55820693
8	177562 20240 0 98727 0 9953.323081334019 487 0.031733389360898 183.7954060235 10010.668256291 426507.25363029
9	197802 20142 0 98965 0 9972.026584065267 485 0.061511334387973 122.31986769862 10002.968917605 404520.78379457
10	217944 21861 0 99179 0 9996.153595328499 514 0.024240820074891 115.40043658838 10097.894385185 393573.15581006
11	239805 21990 0 98651 0 9944.782361932636 517 0.0062286866162945 151.63122362319 10003.837033264 427613.91535108
12	261795 22372 0 98347 0 9913.015986762539 526 0.032509817053472 150.63219787254 10028.60736603 412703.43293712
13	284167 20395 0 97875 0 9862.891699403547 480 0.10111233552027 166.12095365188 10000.203222874 447049.02536099
14	304562 20719 0 99061 0 9983.436781929749 487 0.0098736877915384 144.06945097505 10127.506232905 449321.83411385
15	325281 20168 0 99133 0 9990.421957350433 474 0.031648457969333 139.59973387613 10043.838416591 431682.22753939
16	345449 20713 0 99197 0 9999.088161890493 487 0.010371363658346 122.17557611469 10007.784195932 409546.53435077
17	366162 18646 0 98985 0 9974.511411404623 438 0.023655411927899 155.38097481153 10016.397536558 449497.43267655
18	384808 20318 0 98993 0 9975.053289071569 477 0.023151116350428 154.04314371709 10008.834674367 424139.1886549
19	405126 20312 0 99185 0 9996.501166250001 477 0.037590327724863 129.90963351858 10001.883497208 423658.17018165
20	425438 20759 0 99141 0 9991.081582127087 488 0.003767209999471 102.98281600494 10008.774996737 385050.2339868
21	446197 21759 0 99173 0 9996.029940310807 511 0.014823681847273 130.45124485531 10022.830893015 401082.13686654
22	467956 21175 0 99189 0 9996.727910120343 498 0.011596222424663 133.87975209946 10047.905560918 399316.12541666
23	489131 23304 0 99037 0 9980.886179092497 548 0.071418434536173 116.17496978233 10046.676896709 375156.84811746
24	512435 20931 0 99005 0 9976.920251325624 492 0.070974656299187 174.09663289428 10003.710000559 407995.25313477
25	533366 20812 0 99025 0 9979.0764662856 489 0.0048817737732884 126.21822025211 10076.599803519 393982.84672549
26	554178 21630 0 99175 0 9996.099086575689 508 0.0074573910385494 123.80142411281 10026.590913603 389069.39823953
27	575808 22701 0 98745 0 9954.839102559341 533 0.022180687342159 138.4521635458 10002.702403629 386462.56454677
28	598509 19881 0 98921 0 9967.568536978461 467 0.038335942919895 125.72276001175 10005.973634176 419061.84932771
29	618390 21586 0 98877 0 9965.361969969297 507 0.031844005926585 92.174258355465 10016.645391552 378112.26180373
30	639976 22934 0 99113 0 9990.048077149955 539 0.045043553774284 111.06735699411 10003.773485638 353727.99835727
31	662910 20935 0 98715 0 9952.711255452232 492 0.020866145854828 104.8301977308 10046.409975537 398961.72890731
32	683845 19057 0 99105 0 9989.013592909989 448 0.026255749994766 146.54077052811 10023.748901511 481512.43750092
33	702902 21974 0 99101 0 9988.773738948348 516 0.11248577557766 124.626161655 10005.892468732 399477.57612625
34	724876 19899 0 99085 0 9987.092463379813 468 0.099623511728748 184.22710797948 10001.299993382 456918.37845738
35	744775 20362 0 99041 0 9981.2914297979 478 0.036774659823825 114.29960541522 10048.87649311 436332.52201227
36	765137 21825 0 99159 0 9994.194035165176 512 0.022314466892583 147.56704718234 10001.046285147 436308.20717275
37	786962 21323 0 99051 0 9981.859425766796 500 0.010699091710082 128.92525215641 10001.527156729 380338.95695989
38	808285 22393 0 99155 0 9994.157991223938 526 0.0091809521365116 131.53743934764 10009.260088695 378272.37721508
39	830678 21208 0 99153 0 9994.074619234545 498 0.1141889729258 122.40810658407 10001.229798784 416860.55747372
40	851886 23158 0 99069 0 9984.492289351598 544 0.04482422403855 133.22995350311 10037.95344077 356762.32269579
41	875044 21728 0 99043 0 9981.369724825493 510 0.092962868936504 150.30015386236 10009.00020158 411112.7136882
42	896772 20304 0 99093 0 9987.896369777813 477 0.093955143935072 143.74399646172 10022.358866656 415585.29429196
43	917076 22243 0 98999 0 9975.955210665808 522 0.059105702851395 174.67491564188 10017.047747925 404614.23371105
44	939319 20133 0 99077 0 9986.605002957682 473 0.027238299938806 131.73367803842 10003.197629655 440330.06255774
45	959452 19691 0 99057 0 9982.833272019833 463 0.023856965881187 136.13899530595 10029.664709483 424003.36090863
46	979143 21528 0 99149 0 9992.829674654064 506 0.039611814825651 127.76620391215 10003.384897046 370912.25658411
47	1000671 20829 0 99193 0 9997.29731205588 489 0.022519802085586 176.25530530162 10035.628683355 417476.48387008
48	1021500 21119 0 98625 0 9941.676306480286 496 0.013158788942488 116.58926275025 10010.871052698 387733.37725995
49	1042619 21666 0 99073 0 9986.462686226817 508 0.018667859742578 99.138065853756 10018.85084434 374065.57823229
50	1064285 9301 1 99115 0.00228775245 9990.11807412227 325 1 1 325 325
51	1073586 20251 4 99122 0.10228775245 9990.21807412227 460 0.099999999998545 0.10000000000036 46.000000000001 4.6000000000002
52	1093837 8628 5 98405 0.555392552337 9919.983840261771 301 1 1 301 301
53	1102465 20550 8 98926 0.655392552337 9967.668536978461 466 0.099999999998545 0.18292474873306 46.746083842809 4.700082353678
54	1123015 4221 9 99179 1.937677450053 9996.153595328499 148 1 1 148 148
55	1127236 8928 11 98923 1.947864782496 9967.610260951518 312 1 1 312 312
56	1136164 22518 14 99184 2.037677450053 9996.253595328499 513 0.099999999998545 0.19880657395424 51.486893666486 5.1849008082262
57	1158682 20350 16 99060 2.047864782496 9982.933272019833 462 0.099999999998545 0.14486226597546 46.244862265975 4.6309850761034
58	1179032 9684 17 98473 2.742171611863 9928.765567896204 338 1 1 338 338
59	1188716 21131 20 98680 2.842171611863 9949.527426591918 481 0.099999999998545 0.19047823010624 48.310150624115 4.8673983412204
60	1209847 10366 21 98857 3.025458353437 9963.9970060688 361 1 1 361 361
61	1220213 22542 24 99164 3.125458353437 9994.357991223938 511 0.099999999998545 0.16395605876278 51.239448483412 5.1444484399684
62	1242755 9660 25 98421 3.174191944526 9921.567884050178 338 1 1 338 338
63	1252415 21400 28 98732 3.274191944526 9953.423081334019 486 0.099999999998545 0.18933055619345 48.867025602882 4.9340239976375
64	1273815 10362 29 98347 4.122292679277 9913.015986762539 362 1 1 362 362
65	1284177 23055 32 98352 4.222292679277 9913.115986762539 525 0.099999999998545 0.16207162112187 52.563811424336 5.2666181979311
66	1307232 4363 37 98521 4.415464337692 9931.396322462377 152 1 1 152 152
67	1311595 23109 40 99162 4.515464337692 9994.257991223938 525 0.099999999998545 0.15889446510846 52.629230297917 5.2826859319099
68	1334704 9321 41 99005 4.574488131862 9976.920251325624 326 1 1 326 326
69	1344025 21623 44 99008 4.674488131862 9977.020251325624 491 0.099999999998545 0.19577416327201 49.271185466203 4.9554947177187
70	1365648 10809 49 98745 5.216316998776 9954.839102559341 377 1 1 377 377
71	1376457 23473 52 98748 5.316316998776 9954.939102559341 532 0.099999999998545 0.16625785938868 53.266257859381 5.337641675807
72	1399930 9506 53 98853 5.386079153525 9963.867966803728 332 1 1 332 332
73	1409436 21299 56 98968 5.486079153525 9972.126584065267 484 0.099999999998545 0.15779828958216 48.581560667108 4.8862223612025
74	1430735 4668 61 97821 6.732700642803 9857.404622955567 163 1 1 163 163
75	1435403 10645 67 98909 7.200254957118 9966.955448889771 372 1 1 372 372
76	1446048 22861 72 98912 7.300254957118 9967.055448889771 519 0.099999999998545 0.17099268851098 51.988591912489 5.2130680770046
77	1468909 10491 73 99173 7.516383853158 9996.029940310807 366 1 1 366 366
78	1479400 9657 75 99077 7.520772448292 9986.605002957682 337 1 1 337 337
79	1489057 22486 78 99178 7.616383853158 9996.129940310807 510 0.099999999998545 0.14795255414174 51.094673976496 5.123406514758
80	1511543 20777 80 99080 7.620772448292 9986.705002957682 472 0.099999999998545 0.16443465450993 47.378960651327 4.7650159033688
81	1532320 9944 81 98813 8.479529576145 9961.251970987794 347 1 1 347 347
82	1542264 21306 84 99064 8.579529576145 9983.536781929749 486 0.099999999998545 0.19580869009042 48.752722564225 4.9013906935024
83	1563570 9775 85 97833 9.81754315573 9858.977956502803 342 1 1 342 342
84	1573345 21030 88 97882 9.91754315573 9862.991699403547 479 0.099999999998545 0.17752480116724 48.211241514306 4.8737124788758
85	1594375 9975 89 98651 10.102860213487 9944.782361932636 349 1 1 349 349
86	1604350 10327 91 98929 10.109050649433 9968.340049545275 361 1 1 361 361
87	1614677 22677 94 98658 10.202860213487 9944.882361932636 516 0.099999999998545 0.18817883930478 51.770236317821 5.2085562010458
88	1637354 21392 96 99200 10.209050649433 9999.188161890493 486 0.099999999998545 0.15648196752136 48.783548063904 4.9049496684274
89	1658746 4297 97 99159 10.607247841544 9994.194035165176 150 1 1 150 150
90	1663043 4655 101 98225 10.792116530237 9901.337608076584 162 1 1 162 162
91	1667698 8859 103 99105 10.801820995773 9989.013592909989 309 1 1 309 309
92	1676557 4052 105 99141 10.866787572517 9991.081582127087 142 1 1 142 142
93	1680609 23107 108 99002 10.892116530237 9975.989240837011 524 0.099999999998545 0.15613352976561 52.47778834619 5.2591775734765
94	1703716 19681 110 99108 10.901820995773 9989.113592909989 447 0.099999999998545 0.13819332166531 44.73819332167 4.4790973941538
95	1723397 21459 112 99144 10.992116530237 9991.181582127087 487 0.099999999998545 0.19081011956405 48.948547130744 4.9365299372367
96	1744856 3868 117 99041 11.266904626835 9981.2914297979 135 1 1 135 135
97	1748724 21014 120 99046 11.366904626835 9981.3914297979 477 0.099999999998545 0.10000000000036 47.699999999997 4.7699999999993
98	1769738 9834 129 98833 11.720069290216 9962.43135245718 343 1 1 343 343
99	1779572 21504 132 99028 11.820069290216 9979.1764662856 488 0.099999999998545 0.17972480500794 48.92032051109 4.9120681581046
100	1801076 4204 133 99101 12.220464220164 9988.773738948348 142 1 1 142 142
101	1805280 23203 136 99104 12.320464220164 9988.873738948348 515 0.099999999998545 0.18691764204232 51.64044902399 5.1885100901513
102	1828483 4094 137 98613 13.801456643757 9940.69658467315 138 1 1 138 138
103	1832577 11062 141 99155 14.206722760091 9994.157991223938 373 1 1 373 373
104	1843639 4099 149 99109 14.602554102703 9989.912267252005 138 1 1 138 138
105	1847738 22017 152 99196 14.702554102703 9997.39731205588 488 0.099999999998545 0.16063485678296 48.86063485679 4.895803557215
106	1869755 4383 157 97169 14.869793813563 9789.286091511549 148 1 1 148 148
107	1874138 24625 160 99040 14.969793813563 9980.986179092497 547 0.099999999998545 0.19007459859802 55.064603550974 5.5704147727485
108	1898763 4007 161 98877 15.289165049021 9965.361969969297 135 1 1 135 135
109	1902770 22809 164 98880 15.389165049021 9965.461969969297 506 0.099999999998545 0.19410418588905 50.775396081536 5.1091813271567
110	1925579 9188 165 98373 15.479195405514 9916.541434983684 310 1 1 310 310
111	1934767 21443 168 98996 15.579195405514 9975.153289071569 476 0.099999999998545 0.19142954212566 47.752136664601 4.8024720488126
112	1956210 4245 169 98677 15.779991649309 9949.427426591918 143 1 1 143 143
113	1960455 9666 173 98949 16.360146227598 9969.792063935308 327 1 1 327 327
114	1970121 21021 176 99088 16.460146227598 9987.192463379813 467 0.099999999998545 0.16917866352651 46.769178663511 4.6886214201896
115	1991142 11067 177 98673 18.512703701238 9948.573717861936 373 1 1 373 373
116	2002209 10162 181 98973 20.232092535774 9973.241123304424 342 1 1 342 342
117	2012371 10029 189 99133 22.157866916913 9990.421957350433 339 1 1 339 339
118	2022400 10897 191 99113 22.201606371005 9990.048077149955 368 1 1 368 368
119	2033297 21333 194 99136 22.257866916913 9990.521957350433 473 0.099999999998545 0.16750914042177 47.444782353787 4.7668878143091
120	2054630 24205 196 99120 22.301606371005 9990.148077149955 538 0.099999999998545 0.15114927481227 53.972179655989 5.4223608545574
121	2078835 10427 201 99189 23.117594212154 9996.727910120343 352 1 1 352 352
122	2089262 22369 204 99192 23.217594212154 9996.827910120343 497 0.099999999998545 0.19129452530524 49.798568277374 4.9981012532947
123	2111631 4953 209 97581 23.522428105387 9833.874284824982 167 1 1 167 167
124	2116584 10258 211 99145 23.574070050879 9992.19029764545 346 1 1 346 346
125	2126842 22730 216 99152 23.674070050879 9992.929674654064 505 0.099999999998545 0.19414448284169 50.887901620883 5.1546988914487
126	2149572 10818 225 99165 24.142958068726 9995.30003131005 365 1 1 365 365
127	2160390 10389 241 99043 25.173544223505 9981.369724825493 350 1 1 350 350
128	2170779 22958 244 99048 25.273544223505 9981.469724825493 509 0.099999999998545 0.13318885893801 50.945845969019 5.1004308965969
129	2193737 11812 245 99037 25.359388990519 9980.886179092497 399 1 1 399 399
130	2205549 10899 249 98957 25.482504763199 9970.206964790308 368 1 1 368 368
131	2216448 23173 252 99092 25.582504763199 9987.649122327999 515 0.099999999998545 0.19162879391115 51.772994669868 5.2214824090588
132	2239621 4365 255 98429 26.045132579558 9922.376496503488 147 1 1 147 147
133	2243986 10758 265 98997 26.356990913402 9975.889240837011 362 1 1 362 362
134	2254744 4104 269 99061 26.910220162014 9983.436781929749 139 1 1 139 139
135	2258848 10558 293 99153 30.136654979855 9994.074619234545 356 1 1 356 356
136	2269406 22409 296 99158 30.236654979855 9994.174619234545 497 0.099999999998545 0.199373728762 49.870456662957 5.0164971558299
137	2291815 11818 313 99069 32.263353825185 9984.492289351598 398 1 1 398 398
138	2303633 24482 316 99072 32.363353825185 9984.592289351598 543 0.099999999998545 0.18497772053342 54.517391851469 5.490001801634
139	2328115 4918 317 98953 32.466427183572 9969.908405843999 166 1 1 166 166
140	2333033 23505 320 99004 32.566427183572 9976.055210665808 521 0.099999999998545 0.17537111664205 52.193862734808 5.2346387081236
141	2356538 4008 337 97741 35.394815964888 9846.316648616224 135 1 1 135 135
142	2360546 9562 357 99097 37.456473337418 9988.421466192919 322 1 1 322 322
143	2370108 21426 360 99188 37.556473337418 9996.601166250001 476 0.099999999998545 0.14837172831722 47.688189575498 4.7815632001536
144	2391534 4294 377 99025 39.52149395772 9979.0764662856 145 1 1 145 145
145	2395828 4278 389 97947 40.052609541518 9871.028315679561 144 1 1 144 144
146	2400106 22916 392 99076 40.152609541518 9986.562686226817 507 0.099999999998545 0.18231808999644 50.874433096309 5.1161354229601
147	2423022 10261 407 98513 41.812338459188 9930.973934392158 346 1 1 346 346
148	2433283 22323 412 98628 41.912338459188 9941.776306480286 495 0.099999999998545 0.16285043491916 49.61199403236 4.9776221788411
149	2455606 11177 417 98397 42.093945925536 9917.931621316862 377 1 1 377 377
150	2466783 22829 422 99182 42.193945925536 9996.199086575689 507 0.099999999998545 0.19274671891071 50.832155309636 5.106586052818
151	2489612 4158 453 99085 46.969285331913 9987.092463379813 140 1 1 140 140
152	2493770 4293 455 98413 46.986044818751 9920.79517692426 145 1 1 145 145
153	2498063 10074 473 98661 49.059329604428 9945.271298258848 340 1 1 340 340
154	2508137 22081 476 98722 49.159329604428 9952.811255452232 491 0.099999999998545 0.19805584688856 49.198055846893 4.9392261184876
155	2530218 4927 483 98993 49.806894408114 9975.053289071569 166 1 1 166 166
156	2535145 3864 505 99175 52.14841291076 9996.099086575689 130 1 1 130 130
157	2539009 4053 513 97875 52.559235858436 9862.891699403547 137 1 1 137 137
158	2543062 9796 523 98289 53.929556758937 9907.297965394598 330 1 1 330 330
159	2552858 21888 532 98452 54.029556758937 9926.496825802517 485 0.099999999998545 0.14290105398413 48.574932526463 4.8678530209547
160	2574746 4714 537 99149 54.136845135709 9992.829674654064 159 1 1 159 159
161	2579460 9469 555 98985 54.833920313446 9974.511411404623 319 1 1 319 319
162	2588929 19708 560 98988 54.933920313446 9974.611411404623 437 0.099999999998545 0.12262744363943 43.741138440282 4.3790674606554
163	2608637 10960 567 99051 55.97957222567 9981.859425766796 369 1 1 369 369
164	2619597 22507 572 99056 56.07957222567 9981.959425766796 499 0.099999999998545 0.10000000000036 49.900000000008 4.9900000000016
165	2642104 3493 581 97557 57.623638437397 9831.217214905401 118 1 1 118 118
166	2645597 4469 617 98715 60.744224204781 9952.711255452232 151 1 1 151 151
167	2650066 10988 627 98701 62.028455351841 9951.161215290128 371 1 1 371 371
168	2661054 4299 641 98893 62.513926803029 9966.323604055734 145 1 1 145 145
169	2665353 10246 685 99029 66.444534184884 9980.428682873144 345 1 1 345 345
170	2675599 10802 689 99073 66.750302148377 9986.462686226817 363 1 1 363 363
171	2686401 4332 701 97681 69.004541745721 9840.750686390279 146 1 1 146 146
172	2690733 21475 704 99096 69.104541745721 9987.996369777813 476 0.099999999998545 0.19478115750906 47.849130586023 4.8283575318938
173	2712208 10397 753 99193 74.313939887995 9997.29731205588 350 1 1 350 350
174	2722605 10553 813 98999 80.079332873773 9975.955210665808 355 1 1 355 355
175	2733158 4600 827 98447 81.497762075438 9926.396825802517 155 1 1 155 155
176	2737758 5050 833 98533 81.713375554941 9933.299785879582 170 1 1 170 170
177	2742808 3869 889 98559 89.072476468822 9935.876450015606 130 1 1 130 130
178	2746677 4454 931 99057 92.855527880599 9982.833272019833 150 1 1 150 150
179	2751131 9801 949 99093 94.133005705027 9987.896369777813 330 1 1 330 330
180	2760932 4355 985 99089 97.662786637801 9987.549122327999 147 1 1 147 147
181	2765287 4502 993 98965 98.624539289215 9972.026584065267 152 1 1 152 152