file 5964920 1767629707                                         
version 3
run Uniform-65-20260105-17:15:07-28078
attr configname Uniform
attr datetime 20260105-17:15:07
attr datetimef 20260105-171507
attr experiment Uniform
attr inifile omnetpp.ini
attr iterationvars "$N=100, $p=0.8"
attr iterationvarsd N=100/p=0.8
attr iterationvarsf N=100,p=0.8-
attr measurement "$N=100, $p=0.8"
attr network progetto.DatabaseNetwork
attr processid 28078
attr repetition 0
attr replication #0
attr resultdir results
attr runnumber 65
attr seedset 0
itervar N 100
itervar p 0.8
config description "Uniform distribution - varia N e p"
config *.user[*].tableDistribution "\"uniform\""
config *.numUsers 100
config *.user[*].readProbability 0.8
config network progetto.DatabaseNetwork
config sim-time-limit 10000s
config cpu-time-limit 3600s
config repeat 5
config seed-set 0
config output-vector-file "results/Uniform-$N=100, $p=0.8-0.vec"
config output-scalar-file "results/Uniform-$N=100, $p=0.8-0.sca"
config result-dir results
config **.vector-recording true
config **.scalar-recording true
config *.numTables 20
config *.user[*].lambda 0.05
config *.user[*].serviceTime 0.1s

vector 0 DatabaseNetwork.user[0] AccessInterval ETV
vector 1 DatabaseNetwork.user[1] AccessInterval ETV
vector 2 DatabaseNetwork.user[2] AccessInterval ETV
vector 3 DatabaseNetwork.user[3] AccessInterval ETV
vector 4 DatabaseNetwork.user[4] AccessInterval ETV
vector 5 DatabaseNetwork.user[5] AccessInterval ETV
vector 6 DatabaseNetwork.user[6] AccessInterval ETV
vector 7 DatabaseNetwork.user[7] AccessInterval ETV
vector 8 DatabaseNetwork.user[8] AccessInterval ETV
vector 9 DatabaseNetwork.user[9] AccessInterval ETV
vector 10 DatabaseNetwork.user[10] AccessInterval ETV
vector 11 DatabaseNetwork.user[11] AccessInterval ETV
vector 12 DatabaseNetwork.user[12] AccessInterval ETV
vector 13 DatabaseNetwork.user[13] AccessInterval ETV
vector 14 DatabaseNetwork.user[14] AccessInterval ETV
vector 15 DatabaseNetwork.user[15] AccessInterval ETV
vector 16 DatabaseNetwork.user[16] AccessInterval ETV
vector 17 DatabaseNetwork.user[17] AccessInterval ETV
vector 18 DatabaseNetwork.user[18] AccessInterval ETV
vector 19 DatabaseNetwork.user[19] AccessInterval ETV
vector 20 DatabaseNetwork.user[20] AccessInterval ETV
vector 21 DatabaseNetwork.user[21] AccessInterval ETV
vector 22 DatabaseNetwork.user[22] AccessInterval ETV
vector 23 DatabaseNetwork.user[23] AccessInterval ETV
vector 24 DatabaseNetwork.user[24] AccessInterval ETV
vector 25 DatabaseNetwork.user[25] AccessInterval ETV
vector 26 DatabaseNetwork.user[26] AccessInterval ETV
vector 27 DatabaseNetwork.user[27] AccessInterval ETV
vector 28 DatabaseNetwork.user[28] AccessInterval ETV
vector 29 DatabaseNetwork.user[29] AccessInterval ETV
vector 30 DatabaseNetwork.user[30] AccessInterval ETV
vector 31 DatabaseNetwork.user[31] AccessInterval ETV
vector 32 DatabaseNetwork.user[32] AccessInterval ETV
vector 33 DatabaseNetwork.user[33] AccessInterval ETV
vector 34 DatabaseNetwork.user[34] AccessInterval ETV
vector 35 DatabaseNetwork.user[35] AccessInterval ETV
vector 36 DatabaseNetwork.user[36] AccessInterval ETV
vector 37 DatabaseNetwork.user[37] AccessInterval ETV
vector 38 DatabaseNetwork.user[38] AccessInterval ETV
vector 39 DatabaseNetwork.user[39] AccessInterval ETV
vector 40 DatabaseNetwork.user[40] AccessInterval ETV
vector 41 DatabaseNetwork.user[41] AccessInterval ETV
vector 42 DatabaseNetwork.user[42] AccessInterval ETV
vector 43 DatabaseNetwork.user[43] AccessInterval ETV
vector 44 DatabaseNetwork.user[44] AccessInterval ETV
vector 45 DatabaseNetwork.user[45] AccessInterval ETV
vector 46 DatabaseNetwork.user[46] AccessInterval ETV
vector 47 DatabaseNetwork.user[47] AccessInterval ETV
vector 48 DatabaseNetwork.user[48] AccessInterval ETV
vector 49 DatabaseNetwork.user[49] AccessInterval ETV
vector 50 DatabaseNetwork.user[50] AccessInterval ETV
vector 51 DatabaseNetwork.user[51] AccessInterval ETV
vector 52 DatabaseNetwork.user[52] AccessInterval ETV
vector 53 DatabaseNetwork.user[53] AccessInterval ETV
vector 54 DatabaseNetwork.user[54] AccessInterval ETV
vector 55 DatabaseNetwork.user[55] AccessInterval ETV
vector 56 DatabaseNetwork.user[56] AccessInterval ETV
vector 57 DatabaseNetwork.user[57] AccessInterval ETV
vector 58 DatabaseNetwork.user[58] AccessInterval ETV
vector 59 DatabaseNetwork.user[59] AccessInterval ETV
vector 60 DatabaseNetwork.user[60] AccessInterval ETV
vector 61 DatabaseNetwork.user[61] AccessInterval ETV
vector 62 DatabaseNetwork.user[62] AccessInterval ETV
vector 63 DatabaseNetwork.user[63] AccessInterval ETV
vector 64 DatabaseNetwork.user[64] AccessInterval ETV
vector 65 DatabaseNetwork.user[65] AccessInterval ETV
vector 66 DatabaseNetwork.user[66] AccessInterval ETV
vector 67 DatabaseNetwork.user[67] AccessInterval ETV
vector 68 DatabaseNetwork.user[68] AccessInterval ETV
vector 69 DatabaseNetwork.user[69] AccessInterval ETV
vector 70 DatabaseNetwork.user[70] AccessInterval ETV
vector 71 DatabaseNetwork.user[71] AccessInterval ETV
vector 72 DatabaseNetwork.user[72] AccessInterval ETV
vector 73 DatabaseNetwork.user[73] AccessInterval ETV
vector 74 DatabaseNetwork.user[74] AccessInterval ETV
vector 75 DatabaseNetwork.user[75] AccessInterval ETV
vector 76 DatabaseNetwork.user[76] AccessInterval ETV
vector 77 DatabaseNetwork.user[77] AccessInterval ETV
vector 78 DatabaseNetwork.user[78] AccessInterval ETV
vector 79 DatabaseNetwork.user[79] AccessInterval ETV
vector 80 DatabaseNetwork.user[80] AccessInterval ETV
vector 81 DatabaseNetwork.user[81] AccessInterval ETV
vector 82 DatabaseNetwork.user[82] AccessInterval ETV
vector 83 DatabaseNetwork.user[83] AccessInterval ETV
vector 84 DatabaseNetwork.user[84] AccessInterval ETV
vector 85 DatabaseNetwork.user[85] AccessInterval ETV
vector 86 DatabaseNetwork.user[86] AccessInterval ETV
vector 87 DatabaseNetwork.user[87] AccessInterval ETV
vector 88 DatabaseNetwork.user[88] AccessInterval ETV
vector 89 DatabaseNetwork.user[89] AccessInterval ETV
vector 90 DatabaseNetwork.user[90] AccessInterval ETV
vector 91 DatabaseNetwork.user[91] AccessInterval ETV
vector 92 DatabaseNetwork.user[92] AccessInterval ETV
vector 93 DatabaseNetwork.user[93] AccessInterval ETV
vector 94 DatabaseNetwork.user[94] AccessInterval ETV
vector 95 DatabaseNetwork.user[95] AccessInterval ETV
vector 96 DatabaseNetwork.user[96] AccessInterval ETV
vector 97 DatabaseNetwork.user[97] AccessInterval ETV
vector 98 DatabaseNetwork.user[98] AccessInterval ETV
vector 99 DatabaseNetwork.user[99] AccessInterval ETV
vector 100 DatabaseNetwork.user[68] ReadAccesses ETV
vector 101 DatabaseNetwork.user[32] WriteAccesses ETV
vector 102 DatabaseNetwork.user[68] WaitTime ETV
vector 103 DatabaseNetwork.user[32] WaitTime ETV
vector 104 DatabaseNetwork.user[15] ReadAccesses ETV
vector 105 DatabaseNetwork.user[86] WriteAccesses ETV
vector 106 DatabaseNetwork.user[15] WaitTime ETV
vector 107 DatabaseNetwork.user[86] WaitTime ETV
vector 108 DatabaseNetwork.user[28] ReadAccesses ETV
vector 109 DatabaseNetwork.user[28] WaitTime ETV
vector 110 DatabaseNetwork.user[30] ReadAccesses ETV
vector 111 DatabaseNetwork.user[30] WaitTime ETV
vector 112 DatabaseNetwork.user[85] ReadAccesses ETV
vector 113 DatabaseNetwork.user[85] WaitTime ETV
vector 114 DatabaseNetwork.user[57] ReadAccesses ETV
vector 115 DatabaseNetwork.user[57] WaitTime ETV
vector 116 DatabaseNetwork.user[48] WriteAccesses ETV
vector 117 DatabaseNetwork.user[32] ReadAccesses ETV
vector 118 DatabaseNetwork.user[48] WaitTime ETV
vector 119 DatabaseNetwork.user[94] WriteAccesses ETV
vector 120 DatabaseNetwork.user[94] WaitTime ETV
vector 121 DatabaseNetwork.user[67] WriteAccesses ETV
vector 122 DatabaseNetwork.user[67] WaitTime ETV
vector 123 DatabaseNetwork.user[37] ReadAccesses ETV
vector 124 DatabaseNetwork.user[52] ReadAccesses ETV
vector 125 DatabaseNetwork.user[37] WaitTime ETV
vector 126 DatabaseNetwork.user[52] WaitTime ETV
vector 127 DatabaseNetwork.user[71] ReadAccesses ETV
vector 128 DatabaseNetwork.user[71] WaitTime ETV
vector 129 DatabaseNetwork.user[91] ReadAccesses ETV
vector 130 DatabaseNetwork.user[91] WaitTime ETV
vector 131 DatabaseNetwork.user[61] WriteAccesses ETV
vector 132 DatabaseNetwork.user[61] WaitTime ETV
vector 133 DatabaseNetwork.user[92] WriteAccesses ETV
vector 134 DatabaseNetwork.user[92] WaitTime ETV
vector 135 DatabaseNetwork.user[65] ReadAccesses ETV
vector 136 DatabaseNetwork.user[65] WaitTime ETV
vector 137 DatabaseNetwork.user[73] WriteAccesses ETV
vector 138 DatabaseNetwork.user[73] WaitTime ETV
vector 139 DatabaseNetwork.user[30] WriteAccesses ETV
vector 140 DatabaseNetwork.user[61] ReadAccesses ETV
vector 141 DatabaseNetwork.user[60] ReadAccesses ETV
vector 142 DatabaseNetwork.user[60] WaitTime ETV
vector 143 DatabaseNetwork.user[17] WriteAccesses ETV
vector 144 DatabaseNetwork.user[17] WaitTime ETV
vector 145 DatabaseNetwork.user[13] ReadAccesses ETV
vector 146 DatabaseNetwork.user[13] WaitTime ETV
vector 147 DatabaseNetwork.user[96] ReadAccesses ETV
vector 148 DatabaseNetwork.user[96] WaitTime ETV
vector 149 DatabaseNetwork.user[69] ReadAccesses ETV
vector 150 DatabaseNetwork.user[99] ReadAccesses ETV
vector 151 DatabaseNetwork.user[69] WaitTime ETV
vector 152 DatabaseNetwork.user[99] WaitTime ETV
vector 153 DatabaseNetwork.user[29] ReadAccesses ETV
vector 154 DatabaseNetwork.user[29] WaitTime ETV
vector 155 DatabaseNetwork.user[93] ReadAccesses ETV
vector 156 DatabaseNetwork.user[80] WriteAccesses ETV
vector 157 DatabaseNetwork.user[93] WaitTime ETV
vector 158 DatabaseNetwork.user[80] WaitTime ETV
vector 159 DatabaseNetwork.user[98] ReadAccesses ETV
vector 160 DatabaseNetwork.user[98] WaitTime ETV
vector 161 DatabaseNetwork.user[33] ReadAccesses ETV
vector 162 DatabaseNetwork.user[33] WaitTime ETV
vector 163 DatabaseNetwork.user[18] ReadAccesses ETV
vector 164 DatabaseNetwork.user[11] WriteAccesses ETV
vector 165 DatabaseNetwork.user[75] ReadAccesses ETV
vector 166 DatabaseNetwork.user[18] WaitTime ETV
vector 167 DatabaseNetwork.user[11] WaitTime ETV
vector 168 DatabaseNetwork.user[75] WaitTime ETV
vector 169 DatabaseNetwork.user[25] ReadAccesses ETV
vector 170 DatabaseNetwork.user[25] WaitTime ETV
vector 171 DatabaseNetwork.user[58] ReadAccesses ETV
vector 172 DatabaseNetwork.user[58] WaitTime ETV
vector 173 DatabaseNetwork.user[92] ReadAccesses ETV
vector 174 DatabaseNetwork.user[8] ReadAccesses ETV
vector 175 DatabaseNetwork.user[8] WaitTime ETV
vector 176 DatabaseNetwork.user[82] ReadAccesses ETV
vector 177 DatabaseNetwork.user[12] ReadAccesses ETV
vector 178 DatabaseNetwork.user[82] WaitTime ETV
vector 179 DatabaseNetwork.user[12] WaitTime ETV
vector 180 DatabaseNetwork.user[79] ReadAccesses ETV
vector 181 DatabaseNetwork.user[79] WaitTime ETV
vector 182 DatabaseNetwork.user[64] WriteAccesses ETV
vector 183 DatabaseNetwork.user[64] WaitTime ETV
vector 184 DatabaseNetwork.user[44] ReadAccesses ETV
vector 185 DatabaseNetwork.user[44] WaitTime ETV
vector 186 DatabaseNetwork.user[59] ReadAccesses ETV
vector 187 DatabaseNetwork.user[41] ReadAccesses ETV
vector 188 DatabaseNetwork.user[59] WaitTime ETV
vector 189 DatabaseNetwork.user[41] WaitTime ETV
vector 190 DatabaseNetwork.user[19] ReadAccesses ETV
vector 191 DatabaseNetwork.user[23] ReadAccesses ETV
vector 192 DatabaseNetwork.user[19] WaitTime ETV
vector 193 DatabaseNetwork.user[23] WaitTime ETV
vector 194 DatabaseNetwork.user[93] WriteAccesses ETV
vector 195 DatabaseNetwork.user[28] WriteAccesses ETV
vector 196 DatabaseNetwork.user[12] WriteAccesses ETV
vector 197 DatabaseNetwork.user[45] ReadAccesses ETV
vector 198 DatabaseNetwork.user[56] ReadAccesses ETV
vector 199 DatabaseNetwork.user[45] WaitTime ETV
vector 200 DatabaseNetwork.user[56] WaitTime ETV
vector 201 DatabaseNetwork.user[22] ReadAccesses ETV
vector 202 DatabaseNetwork.user[22] WaitTime ETV
vector 203 DatabaseNetwork.user[53] ReadAccesses ETV
vector 204 DatabaseNetwork.user[11] ReadAccesses ETV
vector 205 DatabaseNetwork.user[53] WaitTime ETV
vector 206 DatabaseNetwork.user[6] ReadAccesses ETV
vector 207 DatabaseNetwork.user[6] WaitTime ETV
vector 208 DatabaseNetwork.user[0] ReadAccesses ETV
vector 209 DatabaseNetwork.user[0] WaitTime ETV
vector 210 DatabaseNetwork.user[24] WriteAccesses ETV
vector 211 DatabaseNetwork.user[66] ReadAccesses ETV
vector 212 DatabaseNetwork.user[24] WaitTime ETV
vector 213 DatabaseNetwork.user[66] WaitTime ETV
vector 214 DatabaseNetwork.user[13] WriteAccesses ETV
vector 215 DatabaseNetwork.user[51] ReadAccesses ETV
vector 216 DatabaseNetwork.user[51] WaitTime ETV
vector 217 DatabaseNetwork.user[1] WriteAccesses ETV
vector 218 DatabaseNetwork.user[1] WaitTime ETV
vector 219 DatabaseNetwork.user[4] ReadAccesses ETV
vector 220 DatabaseNetwork.user[4] WaitTime ETV
vector 221 DatabaseNetwork.user[97] ReadAccesses ETV
vector 222 DatabaseNetwork.user[97] WaitTime ETV
vector 223 DatabaseNetwork.user[72] WriteAccesses ETV
vector 224 DatabaseNetwork.user[81] ReadAccesses ETV
vector 225 DatabaseNetwork.user[72] WaitTime ETV
vector 226 DatabaseNetwork.user[81] WaitTime ETV
vector 227 DatabaseNetwork.user[74] ReadAccesses ETV
vector 228 DatabaseNetwork.user[70] ReadAccesses ETV
vector 229 DatabaseNetwork.user[74] WaitTime ETV
vector 230 DatabaseNetwork.user[70] WaitTime ETV
vector 231 DatabaseNetwork.user[0] WriteAccesses ETV
vector 232 DatabaseNetwork.user[9] ReadAccesses ETV
vector 233 DatabaseNetwork.user[9] WaitTime ETV
vector 234 DatabaseNetwork.user[4] WriteAccesses ETV
vector 235 DatabaseNetwork.user[25] WriteAccesses ETV
vector 236 DatabaseNetwork.user[50] ReadAccesses ETV
vector 237 DatabaseNetwork.user[68] WriteAccesses ETV
vector 238 DatabaseNetwork.user[50] WaitTime ETV
vector 239 DatabaseNetwork.user[10] WriteAccesses ETV
vector 240 DatabaseNetwork.user[10] WaitTime ETV
vector 241 DatabaseNetwork.user[31] ReadAccesses ETV
vector 242 DatabaseNetwork.user[31] WaitTime ETV
vector 243 DatabaseNetwork.user[89] ReadAccesses ETV
vector 244 DatabaseNetwork.user[89] WaitTime ETV
vector 245 DatabaseNetwork.user[19] WriteAccesses ETV
vector 246 DatabaseNetwork.user[88] ReadAccesses ETV
vector 247 DatabaseNetwork.user[88] WaitTime ETV
vector 248 DatabaseNetwork.user[73] ReadAccesses ETV
vector 249 DatabaseNetwork.user[90] ReadAccesses ETV
vector 250 DatabaseNetwork.user[90] WaitTime ETV
vector 251 DatabaseNetwork.user[86] ReadAccesses ETV
vector 252 DatabaseNetwork.user[82] WriteAccesses ETV
vector 253 DatabaseNetwork.user[47] ReadAccesses ETV
vector 254 DatabaseNetwork.user[47] WaitTime ETV
vector 255 DatabaseNetwork.user[78] ReadAccesses ETV
vector 256 DatabaseNetwork.user[78] WaitTime ETV
vector 257 DatabaseNetwork.user[24] ReadAccesses ETV
vector 258 DatabaseNetwork.user[1] ReadAccesses ETV
vector 259 DatabaseNetwork.user[84] ReadAccesses ETV
vector 260 DatabaseNetwork.user[84] WaitTime ETV
vector 261 DatabaseNetwork.user[44] WriteAccesses ETV
vector 262 DatabaseNetwork.user[2] WriteAccesses ETV
vector 263 DatabaseNetwork.user[94] ReadAccesses ETV
vector 264 DatabaseNetwork.user[2] WaitTime ETV
vector 265 DatabaseNetwork.user[49] WriteAccesses ETV
vector 266 DatabaseNetwork.user[49] WaitTime ETV
vector 267 DatabaseNetwork.user[63] WriteAccesses ETV
vector 268 DatabaseNetwork.user[63] WaitTime ETV
vector 269 DatabaseNetwork.user[60] WriteAccesses ETV
vector 270 DatabaseNetwork.user[95] WriteAccesses ETV
vector 271 DatabaseNetwork.user[95] WaitTime ETV
vector 272 DatabaseNetwork.user[55] ReadAccesses ETV
vector 273 DatabaseNetwork.user[72] ReadAccesses ETV
vector 274 DatabaseNetwork.user[55] WaitTime ETV
vector 275 DatabaseNetwork.user[10] ReadAccesses ETV
vector 276 DatabaseNetwork.user[62] ReadAccesses ETV
vector 277 DatabaseNetwork.user[62] WaitTime ETV
vector 278 DatabaseNetwork.user[36] WriteAccesses ETV
vector 279 DatabaseNetwork.user[36] WaitTime ETV
vector 280 DatabaseNetwork.user[46] ReadAccesses ETV
vector 281 DatabaseNetwork.user[46] WaitTime ETV
vector 282 DatabaseNetwork.user[20] ReadAccesses ETV
vector 283 DatabaseNetwork.user[20] WaitTime ETV
vector 284 DatabaseNetwork.user[42] ReadAccesses ETV
vector 285 DatabaseNetwork.user[42] WaitTime ETV
vector 286 DatabaseNetwork.user[43] ReadAccesses ETV
vector 287 DatabaseNetwork.user[43] WaitTime ETV
vector 288 DatabaseNetwork.user[80] ReadAccesses ETV
vector 289 DatabaseNetwork.user[48] ReadAccesses ETV
vector 290 DatabaseNetwork.user[21] ReadAccesses ETV
vector 291 DatabaseNetwork.user[21] WaitTime ETV
vector 292 DatabaseNetwork.user[36] ReadAccesses ETV
vector 293 DatabaseNetwork.user[18] WriteAccesses ETV
vector 294 DatabaseNetwork.user[34] WriteAccesses ETV
vector 295 DatabaseNetwork.user[34] WaitTime ETV
vector 296 DatabaseNetwork.user[27] ReadAccesses ETV
vector 297 DatabaseNetwork.user[27] WaitTime ETV
vector 298 DatabaseNetwork.user[3] ReadAccesses ETV
vector 299 DatabaseNetwork.user[3] WaitTime ETV
vector 300 DatabaseNetwork.user[34] ReadAccesses ETV
vector 301 DatabaseNetwork.user[7] ReadAccesses ETV
vector 302 DatabaseNetwork.user[7] WaitTime ETV
vector 303 DatabaseNetwork.user[2] ReadAccesses ETV
vector 304 DatabaseNetwork.user[5] ReadAccesses ETV
vector 305 DatabaseNetwork.user[5] WaitTime ETV
vector 306 DatabaseNetwork.user[79] WriteAccesses ETV
vector 307 DatabaseNetwork.user[20] WriteAccesses ETV
vector 308 DatabaseNetwork.user[38] ReadAccesses ETV
vector 309 DatabaseNetwork.user[39] WriteAccesses ETV
vector 310 DatabaseNetwork.user[38] WaitTime ETV
vector 311 DatabaseNetwork.user[39] WaitTime ETV
vector 312 DatabaseNetwork.user[9] WriteAccesses ETV
vector 313 DatabaseNetwork.user[70] WriteAccesses ETV
vector 314 DatabaseNetwork.user[63] ReadAccesses ETV
vector 315 DatabaseNetwork.user[14] ReadAccesses ETV
vector 316 DatabaseNetwork.user[14] WaitTime ETV
vector 317 DatabaseNetwork.user[17] ReadAccesses ETV
vector 318 DatabaseNetwork.user[98] WriteAccesses ETV
vector 319 DatabaseNetwork.user[83] ReadAccesses ETV
vector 320 DatabaseNetwork.user[43] WriteAccesses ETV
vector 321 DatabaseNetwork.user[77] ReadAccesses ETV
vector 322 DatabaseNetwork.user[83] WaitTime ETV
vector 323 DatabaseNetwork.user[77] WaitTime ETV
vector 324 DatabaseNetwork.user[26] ReadAccesses ETV
vector 325 DatabaseNetwork.user[26] WaitTime ETV
vector 326 DatabaseNetwork.user[38] WriteAccesses ETV
vector 327 DatabaseNetwork.user[58] WriteAccesses ETV
vector 328 DatabaseNetwork.user[95] ReadAccesses ETV
vector 329 DatabaseNetwork.user[6] WriteAccesses ETV
vector 330 DatabaseNetwork.user[88] WriteAccesses ETV
vector 331 DatabaseNetwork.user[64] ReadAccesses ETV
vector 332 DatabaseNetwork.user[23] WriteAccesses ETV
vector 333 DatabaseNetwork.user[75] WriteAccesses ETV
vector 334 DatabaseNetwork.user[76] ReadAccesses ETV
vector 335 DatabaseNetwork.user[76] WaitTime ETV
vector 336 DatabaseNetwork.user[54] WriteAccesses ETV
vector 337 DatabaseNetwork.user[54] WaitTime ETV
vector 338 DatabaseNetwork.user[29] WriteAccesses ETV
vector 339 DatabaseNetwork.user[50] WriteAccesses ETV
vector 340 DatabaseNetwork.user[54] ReadAccesses ETV
vector 341 DatabaseNetwork.user[83] WriteAccesses ETV
vector 342 DatabaseNetwork.user[35] WriteAccesses ETV
vector 343 DatabaseNetwork.user[35] WaitTime ETV
vector 344 DatabaseNetwork.user[62] WriteAccesses ETV
vector 345 DatabaseNetwork.user[16] ReadAccesses ETV
vector 346 DatabaseNetwork.user[42] WriteAccesses ETV
vector 347 DatabaseNetwork.user[16] WaitTime ETV
vector 348 DatabaseNetwork.user[8] WriteAccesses ETV
vector 349 DatabaseNetwork.user[46] WriteAccesses ETV
vector 350 DatabaseNetwork.user[49] ReadAccesses ETV
vector 351 DatabaseNetwork.user[87] ReadAccesses ETV
vector 352 DatabaseNetwork.user[87] WaitTime ETV
vector 353 DatabaseNetwork.user[66] WriteAccesses ETV
vector 354 DatabaseNetwork.user[87] WriteAccesses ETV
vector 355 DatabaseNetwork.user[35] ReadAccesses ETV
vector 356 DatabaseNetwork.user[69] WriteAccesses ETV
vector 357 DatabaseNetwork.user[40] ReadAccesses ETV
vector 358 DatabaseNetwork.user[40] WaitTime ETV
vector 359 DatabaseNetwork.user[55] WriteAccesses ETV
vector 360 DatabaseNetwork.user[39] ReadAccesses ETV
vector 361 DatabaseNetwork.user[40] WriteAccesses ETV
vector 362 DatabaseNetwork.user[21] WriteAccesses ETV
vector 363 DatabaseNetwork.user[90] WriteAccesses ETV
vector 364 DatabaseNetwork.user[22] WriteAccesses ETV
vector 365 DatabaseNetwork.user[67] ReadAccesses ETV
vector 366 DatabaseNetwork.user[81] WriteAccesses ETV
vector 367 DatabaseNetwork.user[45] WriteAccesses ETV
vector 368 DatabaseNetwork.user[7] WriteAccesses ETV
vector 369 DatabaseNetwork.user[3] WriteAccesses ETV
vector 370 DatabaseNetwork.user[56] WriteAccesses ETV
vector 371 DatabaseNetwork.user[74] WriteAccesses ETV
vector 372 DatabaseNetwork.user[14] WriteAccesses ETV
vector 373 DatabaseNetwork.user[31] WriteAccesses ETV
vector 374 DatabaseNetwork.user[99] WriteAccesses ETV
vector 375 DatabaseNetwork.user[78] WriteAccesses ETV
vector 376 DatabaseNetwork.user[16] WriteAccesses ETV
vector 377 DatabaseNetwork.user[97] WriteAccesses ETV
vector 378 DatabaseNetwork.user[5] WriteAccesses ETV
vector 379 DatabaseNetwork.user[27] WriteAccesses ETV
vector 380 DatabaseNetwork.user[26] WriteAccesses ETV
vector 381 DatabaseNetwork.user[15] WriteAccesses ETV
vector 382 DatabaseNetwork.user[59] WriteAccesses ETV
vector 383 DatabaseNetwork.user[84] WriteAccesses ETV
vector 384 DatabaseNetwork.user[53] WriteAccesses ETV
vector 385 DatabaseNetwork.user[76] WriteAccesses ETV
vector 386 DatabaseNetwork.user[65] WriteAccesses ETV
vector 387 DatabaseNetwork.user[41] WriteAccesses ETV
vector 388 DatabaseNetwork.user[37] WriteAccesses ETV
vector 389 DatabaseNetwork.user[77] WriteAccesses ETV
vector 390 DatabaseNetwork.user[71] WriteAccesses ETV
vector 391 DatabaseNetwork.user[89] WriteAccesses ETV
vector 392 DatabaseNetwork.user[33] WriteAccesses ETV
vector 393 DatabaseNetwork.user[47] WriteAccesses ETV
vector 394 DatabaseNetwork.user[85] WriteAccesses ETV
vector 395 DatabaseNetwork.user[52] WriteAccesses ETV
vector 396 DatabaseNetwork.user[51] WriteAccesses ETV
vector 397 DatabaseNetwork.user[96] WriteAccesses ETV
vector 398 DatabaseNetwork.user[57] WriteAccesses ETV
vector 399 DatabaseNetwork.user[91] WriteAccesses ETV
0	22052 20897 0 199765 0 9993.681933238138 496 0.032654957791945 174.57607665941 10005.012685776 419875.03982421
1	42949 20316 0 199813 0 9997.37051632223 482 0.067861611164086 128.01422285641 10005.237313578 407722.3955616
2	63265 20752 0 199515 0 9979.790987558707 493 0.036209359595683 183.50137997266 10068.427574535 459911.15827265
3	84017 19873 0 199611 0 9984.930498260893 472 0.071672204107869 129.99053738059 10008.460100002 400709.62061637
4	103890 21106 0 199481 0 9977.990381834326 501 0.055322578479776 117.10801580838 10003.008394475 401834.42950561
5	124996 20676 0 199477 0 9977.886370477512 490 0.058703669962988 197.65967260175 10008.109984969 432466.67576128
6	145672 20632 0 199609 0 9984.898611388769 490 0.046849831099163 129.66180984665 10020.725557353 402552.65371352
7	166304 19896 0 199757 0 9993.587604493901 473 0.017173243165545 157.9275382639 10006.233375437 412691.33722895
8	186200 21307 0 197897 0 9896.12126932932 506 0.03136040751556 146.21587629502 10000.890716705 413857.29095656
9	207507 21710 0 198863 0 9947.883745081266 515 0.11699083577763 183.67130023346 10000.884452605 409790.57993084
10	229217 22725 0 199461 0 9977.314406394573 527 0.076720332282591 117.77207693339 10000.108400293 363677.09617317
11	251942 22322 0 199045 0 9957.532967552454 518 0.10166344773506 99.87658573231 10023.120866107 355058.70823685
12	274264 21185 0 199417 0 9974.935063321193 492 0.070207986492838 145.11218810812 10007.442536452 404872.28971782
13	295449 22872 0 199545 0 9981.03010957273 531 0.01517490009216 109.05728306574 10002.091863014 360514.69042359
14	318321 20953 0 199847 0 9999.054352817114 485 0.043289291234851 151.18547010785 10001.711799035 454104.87151639
15	339274 20946 0 199489 0 9978.658476253209 486 0.045189858943017 171.79665261115 10007.062320669 431061.8582686
16	360220 20287 0 199603 0 9984.455022475923 470 0.05833754507004 120.18176293742 10046.848196694 426112.07070797
17	380507 20740 0 199637 0 9985.952737704179 481 0.024892456163687 128.20602593013 10073.930156199 385311.05768085
18	401247 20547 0 199467 0 9977.45978257218 477 0.0011070379028486 122.72954965762 10005.928492894 421797.55784386
19	421794 22040 0 199665 0 9986.485572735898 512 0.029059072502641 138.92198298081 10006.222395586 397774.22745386
20	443834 22021 0 199655 0 9986.23492225275 511 0.088831189675093 143.65675126624 10038.224984764 413641.31784934
21	465855 22329 0 199853 0 9999.765144329522 518 0.0080906897054133 98.246202199126 10011.959383043 382266.1254751
22	488184 22063 0 198965 0 9953.297103017359 511 0.032064517960276 191.6704229798 10007.068914047 408117.87690972
23	510247 21105 0 199021 0 9956.707479104631 489 0.043003527726602 125.42111072734 10042.715372078 389168.92174175
24	531352 21715 0 199453 0 9977.008059364832 503 0.010903305967085 107.20598496913 10007.73395954 387073.19634751
25	553067 23048 0 199857 0 9999.914454387642 534 0.0066438408192016 133.40012538787 10005.24953612 387178.96826313
26	576115 20690 0 199749 0 9993.288265488383 480 8.0219630844018e-05 169.60546855599 10001.67604256 429066.54163027
27	596805 20963 0 199693 0 9991.053541238293 487 0.043612164345251 122.21034769095 10011.509354551 396049.30828231
28	617768 23003 0 199081 0 9958.814716968175 533 0.015315972571654 132.96020941913 10033.662559029 415196.86489404
29	640771 23662 0 198613 0 9934.23188398907 549 0.003555062451604 109.84519495004 10016.036790586 375157.9869352
30	664433 21633 0 199597 0 9984.319050554236 502 0.021297998762479 105.35347201068 10004.86266181 387897.19925967
31	686066 21085 0 198499 0 9927.645287727515 489 0.012667539140039 144.95121498272 10002.166474393 418919.86064651
32	707151 22163 0 199831 0 9998.395374132159 514 0.033457234086797 159.57446540195 10043.310492742 425185.10962581
33	729314 20443 0 199725 0 9992.290429159692 474 0.016413200170964 99.141312325228 10000.441812571 374859.03894055
34	749757 21912 0 199733 0 9992.689898409186 508 0.0052135573475197 138.26635025811 10067.897530131 394226.95736352
35	771669 20983 0 199393 0 9973.645219728795 487 0.19361309120048 161.69863132999 10016.594305819 418086.50174168
36	792652 23102 0 199403 0 9973.959802831144 535 0.023033685418907 122.18673869169 10008.241114469 360184.13473816
37	815754 20721 0 199413 0 9974.765604207435 481 0.095961734708838 243.41944211079 10005.030799857 434747.11905237
38	836475 21492 0 199029 0 9957.020141593705 498 0.062486681942947 110.73426890056 10014.438502709 385939.09728431
39	857967 22472 0 199159 0 9961.275951619836 521 0.018322723193423 118.60961196785 10019.161228519 377452.46444217
40	880439 23124 0 199629 0 9985.493731123899 536 0.033739633410456 113.44659869457 10039.427132708 367138.08117794
41	903563 22248 0 199193 0 9962.756661394924 517 0.078752473072778 130.47093088675 10005.352163905 398676.59385239
42	925811 21627 0 198849 0 9947.444813043487 501 0.0075889479196272 130.22768306487 10031.161413576 410638.54905021
43	947438 21284 0 199589 0 9983.837777627608 494 0.018076732733055 122.85062401718 10027.585053847 415243.197406
44	968722 21982 0 199421 0 9975.191463329224 510 0.024087297094687 132.48688346731 10010.161749848 376611.11176436
45	990704 21321 0 199157 0 9961.209676957322 494 0.037550606776172 113.21017446018 10008.906110298 401607.73509543
46	1012025 21548 0 199351 0 9971.808416085211 500 0.046840164639133 152.53317179829 10036.716610273 423246.9138213
47	1033573 22633 0 199841 0 9998.930608110106 525 0.0029315014128775 110.11932105238 10004.398476772 367438.56911784
48	1056206 23210 0 199623 0 9985.182565474125 538 0.035115150463922 106.29735564852 10003.1859568 360431.44382141
49	1079416 22014 0 199719 0 9992.107779129881 510 0.03083963163123 140.4649420935 10009.660924626 385264.61841943
50	1101430 21907 0 198725 0 9941.384138086748 508 0.013844122774861 162.44170424581 10007.048740115 410883.32796724
51	1123337 21876 0 199699 0 9991.107333230347 508 0.0089524696590117 202.31203595489 10012.461213565 427912.60225336
52	1145213 21217 0 199781 0 9994.651823602861 492 0.081126426421913 194.52080564538 10012.94500052 426688.74717788
53	1166430 23283 0 199795 0 9996.246943819754 540 0.082397381425155 126.60905054413 10051.284768458 387018.06535727
54	1189713 20249 0 199447 0 9976.351136967643 470 0.10357872663955 128.54348439988 10027.404766399 404922.5495431
55	1209962 20630 0 198427 0 9924.300786842163 478 0.020558602831469 174.6172314558 10026.800559802 466380.56888524
56	1230592 19558 0 199737 0 9992.793317987025 454 0.061052474213139 152.46284717115 10006.359228004 444677.89380926
57	1250150 18692 0 198417 0 9923.966909986212 434 0.074420993514957 132.94372807096 10056.910638057 447834.45024028
58	1268842 22924 0 199431 0 9975.448109616133 532 0.030787140644357 188.35988661658 10013.417278108 408112.5302351
59	1291766 22723 0 199817 0 9997.560550173575 527 0.0037346262254305 140.71934260474 10002.589671898 381354.68622608
60	1314489 20756 0 199429 0 9975.435489380524 481 0.035337592495223 123.41804291598 10055.305360657 404857.3936121
61	1335245 21820 0 199139 0 9960.442626775744 507 0.035445551359708 170.50320494408 10065.504116318 433519.51694422
62	1357065 22445 0 199803 0 9996.529692062989 520 0.069110102729823 116.22553331222 10027.981004035 378129.93064849
63	1379510 21572 0 199557 0 9981.504482014316 500 0.039640626438394 127.47441379485 10011.765096609 397540.37497498
64	1401082 21591 0 199583 0 9983.252951793224 501 0.10279405878735 141.9336991399 10002.03336127 396428.05640417
65	1422673 20998 0 199697 0 9991.093030927865 487 0.0028012885128166 198.30021311223 10003.784943063 427369.23092099
66	1443671 21155 0 199825 0 9998.074926804307 491 0.016150330009432 99.861091565423 10014.959320812 378459.21694615
67	1464826 20937 0 199809 0 9997.118208335646 485 0.083397652155151 122.64209244482 10032.247877139 393642.69461483