file 2871616 1767629703                                         
version 3
run Uniform-19-20260105-17:15:03-28078
attr configname Uniform
attr datetime 20260105-17:15:03
attr datetimef 20260105-171503
attr experiment Uniform
attr inifile omnetpp.ini
attr iterationvars "$N=50, $p=0.8"
attr iterationvarsd N=50/p=0.8
attr iterationvarsf N=50,p=0.8-
attr measurement "$N=50, $p=0.8"
attr network progetto.DatabaseNetwork
attr processid 28078
attr repetition 4
attr replication #4
attr resultdir results
attr runnumber 19
attr seedset 4
itervar N 50
itervar p 0.8
config description "Uniform distribution - varia N e p"
config *.user[*].tableDistribution "\"uniform\""
config *.numUsers 50
config *.user[*].readProbability 0.8
config network progetto.DatabaseNetwork
config sim-time-limit 10000s
config cpu-time-limit 3600s
config repeat 5
config seed-set 4
config output-vector-file "results/Uniform-$N=50, $p=0.8-4.vec"
config output-scalar-file "results/Uniform-$N=50, $p=0.8-4.sca"
config result-dir results
config **.vector-recording true
config **.scalar-recording true
config *.numTables 20
config *.user[*].lambda 0.05
config *.user[*].serviceTime 0.1s

vector 0 DatabaseNetwork.user[0] AccessInterval ETV
vector 1 DatabaseNetwork.user[1] AccessInterval ETV
vector 2 DatabaseNetwork.user[2] AccessInterval ETV
vector 3 DatabaseNetwork.user[3] AccessInterval ETV
vector 4 DatabaseNetwork.user[4] AccessInterval ETV
vector 5 DatabaseNetwork.user[5] AccessInterval ETV
vector 6 DatabaseNetwork.user[6] AccessInterval ETV
vector 7 DatabaseNetwork.user[7] AccessInterval ETV
vector 8 DatabaseNetwork.user[8] AccessInterval ETV
vector 9 DatabaseNetwork.user[9] AccessInterval ETV
vector 10 DatabaseNetwork.user[10] AccessInterval ETV
vector 11 DatabaseNetwork.user[11] AccessInterval ETV
vector 12 DatabaseNetwork.user[12] AccessInterval ETV
vector 13 DatabaseNetwork.user[13] AccessInterval ETV
vector 14 DatabaseNetwork.user[14] AccessInterval ETV
vector 15 DatabaseNetwork.user[15] AccessInterval ETV
vector 16 DatabaseNetwork.user[16] AccessInterval ETV
vector 17 DatabaseNetwork.user[17] AccessInterval ETV
vector 18 DatabaseNetwork.user[18] AccessInterval ETV
vector 19 DatabaseNetwork.user[19] AccessInterval ETV
vector 20 DatabaseNetwork.user[20] AccessInterval ETV
vector 21 DatabaseNetwork.user[21] AccessInterval ETV
vector 22 DatabaseNetwork.user[22] AccessInterval ETV
vector 23 DatabaseNetwork.user[23] AccessInterval ETV
vector 24 DatabaseNetwork.user[24] AccessInterval ETV
vector 25 DatabaseNetwork.user[25] AccessInterval ETV
vector 26 DatabaseNetwork.user[26] AccessInterval ETV
vector 27 DatabaseNetwork.user[27] AccessInterval ETV
vector 28 DatabaseNetwork.user[28] AccessInterval ETV
vector 29 DatabaseNetwork.user[29] AccessInterval ETV
vector 30 DatabaseNetwork.user[30] AccessInterval ETV
vector 31 DatabaseNetwork.user[31] AccessInterval ETV
vector 32 DatabaseNetwork.user[32] AccessInterval ETV
vector 33 DatabaseNetwork.user[33] AccessInterval ETV
vector 34 DatabaseNetwork.user[34] AccessInterval ETV
vector 35 DatabaseNetwork.user[35] AccessInterval ETV
vector 36 DatabaseNetwork.user[36] AccessInterval ETV
vector 37 DatabaseNetwork.user[37] AccessInterval ETV
vector 38 DatabaseNetwork.user[38] AccessInterval ETV
vector 39 DatabaseNetwork.user[39] AccessInterval ETV
vector 40 DatabaseNetwork.user[40] AccessInterval ETV
vector 41 DatabaseNetwork.user[41] AccessInterval ETV
vector 42 DatabaseNetwork.user[42] AccessInterval ETV
vector 43 DatabaseNetwork.user[43] AccessInterval ETV
vector 44 DatabaseNetwork.user[44] AccessInterval ETV
vector 45 DatabaseNetwork.user[45] AccessInterval ETV
vector 46 DatabaseNetwork.user[46] AccessInterval ETV
vector 47 DatabaseNetwork.user[47] AccessInterval ETV
vector 48 DatabaseNetwork.user[48] AccessInterval ETV
vector 49 DatabaseNetwork.user[49] AccessInterval ETV
vector 50 DatabaseNetwork.user[21] ReadAccesses ETV
vector 51 DatabaseNetwork.user[14] ReadAccesses ETV
vector 52 DatabaseNetwork.user[32] WriteAccesses ETV
vector 53 DatabaseNetwork.user[21] WaitTime ETV
vector 54 DatabaseNetwork.user[14] WaitTime ETV
vector 55 DatabaseNetwork.user[32] WaitTime ETV
vector 56 DatabaseNetwork.user[41] ReadAccesses ETV
vector 57 DatabaseNetwork.user[41] WaitTime ETV
vector 58 DatabaseNetwork.user[43] ReadAccesses ETV
vector 59 DatabaseNetwork.user[36] ReadAccesses ETV
vector 60 DatabaseNetwork.user[43] WaitTime ETV
vector 61 DatabaseNetwork.user[36] WaitTime ETV
vector 62 DatabaseNetwork.user[11] ReadAccesses ETV
vector 63 DatabaseNetwork.user[11] WaitTime ETV
vector 64 DatabaseNetwork.user[28] ReadAccesses ETV
vector 65 DatabaseNetwork.user[28] WaitTime ETV
vector 66 DatabaseNetwork.user[3] ReadAccesses ETV
vector 67 DatabaseNetwork.user[48] ReadAccesses ETV
vector 68 DatabaseNetwork.user[3] WaitTime ETV
vector 69 DatabaseNetwork.user[48] WaitTime ETV
vector 70 DatabaseNetwork.user[22] ReadAccesses ETV
vector 71 DatabaseNetwork.user[22] WaitTime ETV
vector 72 DatabaseNetwork.user[10] ReadAccesses ETV
vector 73 DatabaseNetwork.user[10] WaitTime ETV
vector 74 DatabaseNetwork.user[13] ReadAccesses ETV
vector 75 DatabaseNetwork.user[13] WaitTime ETV
vector 76 DatabaseNetwork.user[16] ReadAccesses ETV
vector 77 DatabaseNetwork.user[16] WaitTime ETV
vector 78 DatabaseNetwork.user[35] WriteAccesses ETV
vector 79 DatabaseNetwork.user[35] WaitTime ETV
vector 80 DatabaseNetwork.user[43] WriteAccesses ETV
vector 81 DatabaseNetwork.user[25] ReadAccesses ETV
vector 82 DatabaseNetwork.user[25] WaitTime ETV
vector 83 DatabaseNetwork.user[34] ReadAccesses ETV
vector 84 DatabaseNetwork.user[34] WaitTime ETV
vector 85 DatabaseNetwork.user[29] WriteAccesses ETV
vector 86 DatabaseNetwork.user[29] WaitTime ETV
vector 87 DatabaseNetwork.user[13] WriteAccesses ETV
vector 88 DatabaseNetwork.user[28] WriteAccesses ETV
vector 89 DatabaseNetwork.user[18] ReadAccesses ETV
vector 90 DatabaseNetwork.user[40] ReadAccesses ETV
vector 91 DatabaseNetwork.user[18] WaitTime ETV
vector 92 DatabaseNetwork.user[40] WaitTime ETV
vector 93 DatabaseNetwork.user[49] WriteAccesses ETV
vector 94 DatabaseNetwork.user[49] WaitTime ETV
vector 95 DatabaseNetwork.user[47] ReadAccesses ETV
vector 96 DatabaseNetwork.user[47] WaitTime ETV
vector 97 DatabaseNetwork.user[18] WriteAccesses ETV
vector 98 DatabaseNetwork.user[35] ReadAccesses ETV
vector 99 DatabaseNetwork.user[2] WriteAccesses ETV
vector 100 DatabaseNetwork.user[2] WaitTime ETV
vector 101 DatabaseNetwork.user[23] ReadAccesses ETV
vector 102 DatabaseNetwork.user[23] WaitTime ETV
vector 103 DatabaseNetwork.user[11] WriteAccesses ETV
vector 104 DatabaseNetwork.user[30] ReadAccesses ETV
vector 105 DatabaseNetwork.user[9] WriteAccesses ETV
vector 106 DatabaseNetwork.user[30] WaitTime ETV
vector 107 DatabaseNetwork.user[9] WaitTime ETV
vector 108 DatabaseNetwork.user[27] WriteAccesses ETV
vector 109 DatabaseNetwork.user[27] WaitTime ETV
vector 110 DatabaseNetwork.user[7] ReadAccesses ETV
vector 111 DatabaseNetwork.user[10] WriteAccesses ETV
vector 112 DatabaseNetwork.user[7] WaitTime ETV
vector 113 DatabaseNetwork.user[33] WriteAccesses ETV
vector 114 DatabaseNetwork.user[33] WaitTime ETV
vector 115 DatabaseNetwork.user[32] ReadAccesses ETV
vector 116 DatabaseNetwork.user[19] WriteAccesses ETV
vector 117 DatabaseNetwork.user[19] WaitTime ETV
vector 118 DatabaseNetwork.user[37] ReadAccesses ETV
vector 119 DatabaseNetwork.user[29] ReadAccesses ETV
vector 120 DatabaseNetwork.user[37] WaitTime ETV
vector 121 DatabaseNetwork.user[22] WriteAccesses ETV
vector 122 DatabaseNetwork.user[8] WriteAccesses ETV
vector 123 DatabaseNetwork.user[15] ReadAccesses ETV
vector 124 DatabaseNetwork.user[8] WaitTime ETV
vector 125 DatabaseNetwork.user[15] WaitTime ETV
vector 126 DatabaseNetwork.user[19] ReadAccesses ETV
vector 127 DatabaseNetwork.user[6] ReadAccesses ETV
vector 128 DatabaseNetwork.user[6] WaitTime ETV
vector 129 DatabaseNetwork.user[20] ReadAccesses ETV
vector 130 DatabaseNetwork.user[20] WaitTime ETV
vector 131 DatabaseNetwork.user[47] WriteAccesses ETV
vector 132 DatabaseNetwork.user[44] ReadAccesses ETV
vector 133 DatabaseNetwork.user[44] WaitTime ETV
vector 134 DatabaseNetwork.user[39] ReadAccesses ETV
vector 135 DatabaseNetwork.user[31] ReadAccesses ETV
vector 136 DatabaseNetwork.user[39] WaitTime ETV
vector 137 DatabaseNetwork.user[36] WriteAccesses ETV
vector 138 DatabaseNetwork.user[31] WaitTime ETV
vector 139 DatabaseNetwork.user[33] ReadAccesses ETV
vector 140 DatabaseNetwork.user[5] ReadAccesses ETV
vector 141 DatabaseNetwork.user[5] WaitTime ETV
vector 142 DatabaseNetwork.user[2] ReadAccesses ETV
vector 143 DatabaseNetwork.user[31] WriteAccesses ETV
vector 144 DatabaseNetwork.user[24] ReadAccesses ETV
vector 145 DatabaseNetwork.user[16] WriteAccesses ETV
vector 146 DatabaseNetwork.user[24] WaitTime ETV
vector 147 DatabaseNetwork.user[9] ReadAccesses ETV
vector 148 DatabaseNetwork.user[46] WriteAccesses ETV
vector 149 DatabaseNetwork.user[14] WriteAccesses ETV
vector 150 DatabaseNetwork.user[46] WaitTime ETV
vector 151 DatabaseNetwork.user[49] ReadAccesses ETV
vector 152 DatabaseNetwork.user[46] ReadAccesses ETV
vector 153 DatabaseNetwork.user[1] ReadAccesses ETV
vector 154 DatabaseNetwork.user[1] WaitTime ETV
vector 155 DatabaseNetwork.user[17] WriteAccesses ETV
vector 156 DatabaseNetwork.user[17] WaitTime ETV
vector 157 DatabaseNetwork.user[44] WriteAccesses ETV
vector 158 DatabaseNetwork.user[45] WriteAccesses ETV
vector 159 DatabaseNetwork.user[45] WaitTime ETV
vector 160 DatabaseNetwork.user[34] WriteAccesses ETV
vector 161 DatabaseNetwork.user[25] WriteAccesses ETV
vector 162 DatabaseNetwork.user[42] ReadAccesses ETV
vector 163 DatabaseNetwork.user[42] WaitTime ETV
vector 164 DatabaseNetwork.user[27] ReadAccesses ETV
vector 165 DatabaseNetwork.user[23] WriteAccesses ETV
vector 166 DatabaseNetwork.user[38] ReadAccesses ETV
vector 167 DatabaseNetwork.user[3] WriteAccesses ETV
vector 168 DatabaseNetwork.user[38] WaitTime ETV
vector 169 DatabaseNetwork.user[0] WriteAccesses ETV
vector 170 DatabaseNetwork.user[0] WaitTime ETV
vector 171 DatabaseNetwork.user[0] ReadAccesses ETV
vector 172 DatabaseNetwork.user[45] ReadAccesses ETV
vector 173 DatabaseNetwork.user[48] WriteAccesses ETV
vector 174 DatabaseNetwork.user[4] ReadAccesses ETV
vector 175 DatabaseNetwork.user[4] WaitTime ETV
vector 176 DatabaseNetwork.user[12] ReadAccesses ETV
vector 177 DatabaseNetwork.user[12] WaitTime ETV
vector 178 DatabaseNetwork.user[30] WriteAccesses ETV
vector 179 DatabaseNetwork.user[26] ReadAccesses ETV
vector 180 DatabaseNetwork.user[26] WaitTime ETV
vector 181 DatabaseNetwork.user[20] WriteAccesses ETV
vector 182 DatabaseNetwork.user[8] ReadAccesses ETV
vector 183 DatabaseNetwork.user[39] WriteAccesses ETV
vector 184 DatabaseNetwork.user[37] WriteAccesses ETV
vector 185 DatabaseNetwork.user[41] WriteAccesses ETV
vector 186 DatabaseNetwork.user[17] ReadAccesses ETV
vector 187 DatabaseNetwork.user[38] WriteAccesses ETV
vector 188 DatabaseNetwork.user[24] WriteAccesses ETV
vector 189 DatabaseNetwork.user[5] WriteAccesses ETV
vector 190 DatabaseNetwork.user[4] WriteAccesses ETV
vector 191 DatabaseNetwork.user[7] WriteAccesses ETV
vector 192 DatabaseNetwork.user[6] WriteAccesses ETV
vector 193 DatabaseNetwork.user[42] WriteAccesses ETV
vector 194 DatabaseNetwork.user[40] WriteAccesses ETV
vector 195 DatabaseNetwork.user[21] WriteAccesses ETV
vector 196 DatabaseNetwork.user[15] WriteAccesses ETV
vector 197 DatabaseNetwork.user[12] WriteAccesses ETV
vector 198 DatabaseNetwork.user[1] WriteAccesses ETV
vector 199 DatabaseNetwork.user[26] WriteAccesses ETV
0	11494 20867 0 98241 0 9997.421044644325 502 0.078602041970878 136.47660212187 10043.357718379 419270.18255198
1	32361 21968 0 98197 0 9993.527857317843 528 0.0027505709596991 143.29976163663 10018.375670788 374827.03564063
2	54329 22022 0 98253 0 9997.77080822595 530 0.015606280608321 140.3559909028 10006.372835345 397206.57980893
3	76351 20684 0 97821 0 9949.001527648247 498 0.045283267428249 132.26562646478 10002.446872642 436836.03950614
4	97035 21520 0 97785 0 9945.119987378361 517 0.080484410282543 112.86254503164 10038.296164 372361.46738851
5	118555 20918 0 98289 0 9999.860937797437 503 0.0079620364071526 222.30832138436 10003.530052159 430698.15577198
6	139473 22687 0 98245 0 9997.471537289061 545 0.017334053604634 124.89127585828 10019.578108466 358889.75825121
7	162160 22131 0 98097 0 9983.365597114674 532 0.0047075094875229 159.43521620384 10000.779268754 399467.85869027
8	184291 19702 0 97997 0 9968.150628578 474 0.15581334764642 115.34319623579 10011.019759602 413027.08427994
9	203993 21352 0 97993 0 9967.427837489219 514 0.0099168340252379 137.32571600505 10034.256148144 387381.77997784
10	225345 20293 0 97763 0 9940.947221406533 477 0.092669311951042 151.5771546567 10019.120890426 444650.53429418
11	245638 21145 0 98217 0 9995.183307134879 497 0.020074093252861 130.76095664841 10001.952636075 422961.96107298
12	266783 19543 0 98165 0 9990.581961869083 459 0.015623989558225 150.19267829954 10000.3004051 440574.40420761
13	286326 21632 0 97701 0 9935.265050417749 508 5.5749047015316e-05 130.9763476901 10010.072876862 417900.72045045
14	307958 19907 0 98037 0 9976.249247460341 467 0.12499492053836 157.39789253232 10021.654760258 419862.91192517
15	327865 21120 0 98269 0 9998.846805512508 496 0.0004518036539097 118.12085387615 10013.954807846 385722.58850467
16	348985 19472 0 97985 0 9966.294712043261 458 0.10173196340094 149.0660826959 10010.09149045 424209.84605456
17	368457 19713 0 98135 0 9989.364016844113 463 0.075305926984173 142.42586720194 10005.995314215 416213.30391055
18	388170 22998 0 98029 0 9975.104768371591 540 0.058937265770526 129.16825314681 10030.413972648 378590.76649623
19	411168 20538 0 98235 0 9996.615171026139 483 0.061586252001885 172.9193582331 10169.534529259 431696.57782549
20	431706 19426 0 97975 0 9963.805070253091 457 0.052061890943045 141.72608792658 10006.117299687 433852.75830189
21	451132 21283 0 98085 0 9982.40829886654 500 0.076936464095804 145.52115947366 10003.118557197 397104.70448664
22	472415 20598 0 98263 0 9998.502423417022 484 0.0029276079142465 142.03879635957 10026.288802059 409166.49557664
23	493013 20784 0 98193 0 9993.192958988225 488 0.033278881865096 134.4994904339 10010.666083635 396435.99767431
24	513797 20420 0 98003 0 9971.13053485477 480 0.0024133560603838 112.33095569395 10019.714566305 399503.69427593
25	534217 20267 0 98123 0 9986.380253881306 477 0.004879156118163 132.74091102854 10015.414503724 408240.76758076
26	554484 19331 0 98185 0 9992.867441774549 454 0.1151121334192 133.29516050925 10002.182630291 432219.04501931
27	573815 21214 0 98149 0 9989.682707983215 498 0.052399803935748 131.19391599351 10020.925879111 392638.31230101
28	595029 21761 0 98277 0 9999.241727885925 512 0.061071937652386 103.92626573281 10015.60544499 366726.2430632
29	616790 19817 0 98243 0 9997.43312744136 466 0.0087820039761462 210.13066373547 10052.341674206 460734.42150321
30	636607 21296 0 98223 0 9995.736818973384 500 0.0021693309033906 144.6056079225 10009.048020375 401402.46243793
31	657903 21475 0 98089 0 9982.664717701378 505 0.024369783272852 100.72379330722 10021.725050553 369621.20144286
32	679378 21532 0 98069 0 9981.04581359215 506 0.0029521239278352 147.63342473585 10024.541729419 431551.683074
33	700910 22119 0 98221 0 9995.685816581547 520 0.04360463683343 115.93672928004 10005.142551987 362746.31541564
34	723029 20074 0 98079 0 9982.288010434108 472 0.031010098868493 166.20357958534 10032.743228346 424391.67767523
35	743103 20243 0 98213 0 9994.456237772916 475 0.044951961906862 119.07557650739 10035.952619513 420780.43157855
36	763346 20510 0 98285 0 9999.780505546489 482 0.028953106717062 153.40320659611 10000.310601149 408401.75335119
37	783856 22016 0 98293 0 9999.892940268995 517 0.042716209667178 134.39990417053 10049.791205739 397183.55019269
38	805872 20991 0 98233 0 9996.550027303466 493 0.00012376383987706 119.97708380181 10045.725573013 418436.53002308
39	826863 20411 0 98287 0 9999.825322636885 480 0.020477769622619 128.15853731844 10011.423530531 405289.24928475
40	847274 22026 0 97953 0 9961.324103709315 517 0.025791063055574 130.4021538872 10014.204821731 377650.89914083
41	869300 19820 0 98121 0 9986.330641074843 465 0.010797795084929 147.02931349729 10016.541868974 443005.23288144
42	889120 20422 0 98271 0 9998.869716755102 479 0.027363887810675 127.16578786748 10049.663991507 413046.09524999
43	909542 21049 0 98173 0 9991.892381079451 494 0.0035495340702879 161.03219326822 10007.751658212 421897.43571738
44	930591 21558 0 98161 0 9990.448594215911 506 0.029541589300919 121.28066667115 10001.001998791 382721.29396397
45	952149 21154 0 98281 0 9999.346985609437 497 0.012307642376304 147.20731768034 10028.04872583 436220.11654884
46	973303 19672 0 98129 0 9987.654265885074 463 0.15392307402875 135.45740468175 10011.894865908 446786.91664975
47	992975 20622 0 98229 0 9996.339409230896 484 0.019809860504066 170.45449509741 10001.540601011 466332.24047333
48	1013597 20519 0 97781 0 9944.771333640899 482 0.03271125503263 183.02726823281 10019.212273278 421208.4993984
49	1034116 20468 0 98049 0 9978.2315482053 481 0.0057460472081264 151.12435135245 10006.864490093 406666.09592717
50	1054584 11719 1 98085 0.103450084854 9982.40829886654 409 1 1 409 409
51	1066303 10604 3 98037 0.124994920538 9976.249247460341 369 1 1 369 369
52	1076907 3126 5 97209 0.180534259308 9889.967349595449 109 1 1 109 109
53	1080033 22018 8 98088 0.203450084854 9982.50829886654 499 0.099999999998545 0.10000000000036 49.899999999992 4.9899999999984
54	1102051 20540 10 98040 0.224994920538 9976.349247460341 466 0.099999999998545 0.1819334037541 46.765763512629 4.7026067194502
55	1122591 22224 12 98072 0.280534259308 9981.14581359215 505 0.099999999998545 0.16494387874604 50.56494387876 5.0672064831386
56	1144815 10953 13 98121 0.384160801167 9986.330641074843 381 1 1 381 381
57	1155768 20490 16 98126 0.484160801167 9986.430641074843 464 0.099999999998545 0.18253001827088 46.563744237041 4.6861558006543
58	1176258 11708 17 98173 0.811864623012 9991.892381079451 408 1 1 408 408
59	1187966 11601 19 98255 0.903296000607 9997.847760316595 405 1 1 405 405
60	1199567 21680 22 98180 0.911864623012 9991.992381079451 493 0.099999999998545 0.17123351647206 49.415248477993 4.9595985729324
61	1221247 21178 24 98292 1.003296000607 9999.880505546489 481 0.099999999998545 0.16160011094803 48.284548582828 4.8559447644445
62	1242425 11382 25 98217 3.050537345286 9995.183307134879 397 1 1 397 397
63	1253807 21822 28 98220 3.150537345286 9995.283307134879 496 0.099999999998545 0.12403196488299 49.633437929127 4.967353593325
64	1275629 11995 29 98277 3.578759603203 9999.241727885925 419 1 1 419 419
65	1287624 22457 32 98280 3.678759603203 9999.341727885925 511 0.099999999998545 0.15800420101499 51.203637161339 5.1361742866706
66	1310081 11488 33 97821 3.791644837522 9949.001527648247 401 1 1 401 401
67	1321569 11441 35 97781 3.803012575959 9944.771333640899 399 1 1 399 399
68	1333010 21851 38 97824 3.891644837522 9949.101527648247 497 0.099999999998545 0.10023202967704 49.70023202969 4.9700464597758
69	1354861 21173 40 97784 3.903012575959 9944.871333640899 481 0.099999999998545 0.11141029661076 48.111410296624 4.8124122541935
70	1376034 10681 43 98263 4.405081391127 9998.502423417022 372 1 1 372 372
71	1386715 21259 48 98268 4.505081391127 9998.602423417022 483 0.099999999998545 0.16744392682267 48.418340696834 4.8597773459709
72	1407974 10612 49 97763 4.869208481028 9940.947221406533 370 1 1 370 370
73	1418586 20939 52 97768 4.969208481028 9941.047221406533 476 0.099999999998545 0.16793115412565 47.774627742451 4.8052693376012
74	1439525 11367 53 97701 5.085098776772 9935.265050417749 397 1 1 397 397
75	1450892 22322 56 97704 5.185098776772 9935.365050417749 507 0.099999999998545 0.19983620290805 50.799836202908 5.0999345079928
76	1473214 10577 57 97985 5.833329620429 9966.294712043261 369 1 1 369 369
77	1483791 20080 60 97988 5.933329620429 9966.394712043261 457 0.099999999998545 0.19050535933502 45.929890413645 4.6338916854962
78	1503871 2609 61 97885 6.197838799042 9953.667370232238 91 1 1 91 91
79	1506480 20891 64 98216 6.297838799042 9994.556237772916 474 0.099999999998545 0.19168798049486 47.546314363394 4.7793164282903
80	1527371 2432 65 97517 6.860256152217 9917.052271731799 85 1 1 85 85
81	1529803 10904 69 98123 8.972557471138 9986.380253881306 381 1 1 381 381
82	1540707 20951 72 98128 9.072557471138 9986.480253881306 476 0.099999999998545 0.19392752827707 47.797731575807 4.8138020494725
83	1561658 11393 73 98079 9.773824215015 9982.288010434108 398 1 1 398 398
84	1573051 20706 76 98084 9.873824215015 9982.388010434108 471 0.099999999998545 0.18498457138617 47.27088933576 4.7573744355736
85	1593757 3094 77 96449 9.943918478517 9809.007990187653 108 1 1 108 108
86	1596851 20433 80 98250 10.043918478517 9997.53312744136 465 0.099999999998545 0.16986677079808 46.601229356086 4.6761108486339
87	1617284 3151 85 96549 10.937105802558 9817.991796504965 110 1 1 110 110
88	1620435 2629 91 96185 11.178105333182 9781.085435197823 92 1 1 92 92
89	1623064 12385 97 98029 11.411212832884 9975.104768371591 432 1 1 432 432
90	1635449 11975 99 97953 11.459221530867 9961.324103709315 418 1 1 418 418
91	1647424 23728 102 98034 11.511212832884 9975.204768371591 539 0.099999999998545 0.14321962946406 54.000064565705 5.4136638641568
92	1671152 22747 104 97956 11.559221530867 9961.424103709315 516 0.099999999998545 0.10000000000036 51.600000000009 5.1600000000017
93	1693899 3008 105 98017 11.644589893943 9972.17205863778 105 1 1 105 105
94	1696907 21091 108 98052 11.744589893943 9978.3315482053 480 0.099999999998545 0.18142895389383 48.27632145467 4.8749638916114
95	1717998 10861 109 98141 11.824422337879 9989.522097564403 378 1 1 378 378
96	1728859 21300 112 98232 11.924422337879 9996.439409230896 483 0.099999999998545 0.10000000000036 48.299999999998 4.8299999999995
97	1750159 3076 113 97679 13.078393711605 9934.127799259382 107 1 1 107 107
98	1753235 10989 117 98213 15.212954889213 9994.456237772916 383 1 1 383 383
99	1764224 3046 121 98253 15.847519705861 9997.77080822595 107 1 1 107 107
100	1767270 23776 124 98258 15.947519705861 9997.87080822595 529 0.099999999998545 0.18450238760693 53.156494313817 5.3583423469685
101	1791046 11233 125 98193 16.989307105541 9993.192958988225 378 1 1 378 378
102	1802279 21952 128 98196 17.089307105541 9993.292958988225 487 0.099999999998545 0.17447908421605 48.784329755355 4.8925101207785
103	1824231 2931 137 97961 17.914271373535 9963.052407530455 99 1 1 99 99
104	1827162 11783 141 98223 18.192954053306 9995.736818973384 397 1 1 397 397
105	1838945 3798 143 97993 18.203996667261 9967.427837489219 128 1 1 128 128
106	1842743 22483 146 98228 18.292954053306 9995.836818973384 499 0.099999999998545 0.17471569205827 50.037970159907 5.0271775943258
107	1865226 23038 148 97996 18.303996667261 9967.527837489219 513 0.099999999998545 0.19314383608616 51.712898136596 5.2470042910027
108	1888264 2845 151 98149 18.533485951062 9989.682707983215 96 1 1 96 96
109	1891109 22395 156 98156 18.633485951062 9989.782707983215 497 0.099999999998545 0.17041109795173 49.801134179926 4.9961284664654
110	1913504 13050 157 98097 18.782775338233 9983.365597114674 440 1 1 440 440
111	1926554 3140 159 97381 18.83373206621 9902.56006541096 106 1 1 106 106
112	1929694 23961 162 98102 18.882775338233 9983.465597114674 531 0.099999999998545 0.18884353535714 53.281667877265 5.3598758149215
113	1953655 3259 163 98041 18.962096682497 9976.559142471063 110 1 1 110 110
114	1956914 23367 170 98226 19.062096682497 9995.785816581547 519 0.099999999998545 0.19802036944566 52.201242562835 5.2742573323516
115	1980281 11733 173 98069 19.493228981811 9981.04581359215 396 1 1 396 396
116	1992014 2995 177 97717 20.045857794132 9936.220925917334 101 1 1 101 101
117	1995009 21686 182 98240 20.145857794132 9996.715171026139 482 0.099999999998545 0.11340752822161 48.213407528228 4.8228612674586
118	2016695 12513 185 98293 20.651674870035 9999.892940268995 421 1 1 421 421
119	2029208 10581 187 98243 20.727607933148 9997.43312744136 357 1 1 357 357
120	2039789 23290 190 98300 20.751674870035 9999.992940268995 516 0.099999999998545 0.17758428987145 51.709891835857 5.1890414667335
121	2063079 3276 193 96959 21.612600072451 9862.103638666873 111 1 1 111 111
122	2066355 3192 207 97997 23.928614636913 9968.150628578 108 1 1 108 108
123	2069547 12260 211 98269 23.97441503593 9998.846805512508 413 1 1 413 413
124	2081807 21319 214 98000 24.032577761217 9968.250628578 473 0.099999999998545 0.12950089659353 47.35991424524 4.7432581584942
125	2103126 22333 216 98274 24.07441503593 9998.946805512508 495 0.099999999998545 0.19051895200118 49.738460409809 5.0152003895384
126	2125459 11293 217 98235 24.340415989707 9996.615171026139 381 1 1 381 381
127	2136752 12945 229 98245 25.092413473659 9997.471537289061 436 1 1 436 436
128	2149697 24575 232 98252 25.192413473659 9997.571537289061 544 0.099999999998545 0.18382250227501 54.624463399985 5.5020546551988
129	2174272 10575 271 97975 30.226535538176 9963.805070253091 357 1 1 357 357
130	2184847 20518 276 97980 30.326535538176 9963.905070253091 456 0.099999999998545 0.18109171917922 45.802288241285 4.6149377235935
131	2205365 3107 277 98229 30.329210889279 9996.339409230896 105 1 1 105 105
132	2208472 11910 281 98161 30.864202401754 9990.448594215911 401 1 1 401 401
133	2220382 22792 284 98164 30.964202401754 9990.548594215911 505 0.099999999998545 0.17996679188536 50.658288090177 5.0938013189711
134	2243174 11519 309 98143 33.326738266834 9989.561678474788 389 1 1 389 389
135	2254693 11674 311 98089 33.420708601755 9982.664717701378 394 1 1 394 394
136	2266367 21594 314 98296 33.426738266834 9999.925322636885 479 0.099999999998545 0.19465112424632 47.994651124242 4.8178890601694
137	2287961 2257 317 98285 33.517236519414 9999.780505546489 76 1 1 76 76
138	2290218 22712 320 98092 33.520708601755 9982.764717701378 504 0.099999999998545 0.13472692896721 50.456060120276 5.0528730887017
139	2312930 12133 341 98221 38.25753652984 9995.685816581547 409 1 1 409 409
140	2325063 11805 345 98289 38.706262212746 9999.860937797437 398 1 1 398 398
141	2336868 22642 348 98298 38.806262212746 9999.980505546489 502 0.099999999998545 0.11956774905229 50.219567749058 5.0242964466145
142	2359510 12517 357 98045 39.422761669192 9978.038548007774 422 1 1 422 422
143	2372027 3258 361 96593 39.558292116578 9822.038810216969 110 1 1 110 110
144	2375285 11534 367 98003 39.754499530406 9971.13053485477 389 1 1 389 389
145	2386819 2601 371 97105 39.803001423066 9879.889258780441 88 1 1 88 88
146	2389420 21592 374 98008 39.854499530406 9971.23053485477 479 0.099999999998545 0.18577392882435 48.130481369468 4.8513157679061
147	2411012 11405 379 97837 40.191914780355 9949.588138230942 385 1 1 385 385
148	2422417 3132 383 97873 40.241534932212 9951.971424425876 106 1 1 106 106
149	2425549 2883 387 96919 40.305812902198 9858.631183583177 97 1 1 97 97
150	2428432 20750 390 98132 40.341534932212 9987.754265885074 462 0.099999999998545 0.17132291751409 46.271322917509 4.6393515420645
151	2449182 11115 419 98049 44.547606418975 9978.2315482053 375 1 1 375 375
152	2460297 10559 433 98129 45.609010468593 9987.654265885074 356 1 1 356 356
153	2470856 12881 441 98197 46.1763806128 9993.527857317843 434 1 1 434 434
154	2483737 23787 444 98200 46.2763806128 9993.627857317843 527 0.099999999998545 0.17070330019669 52.818722184428 5.301049206787
155	2507524 2570 453 97369 46.69772947558 9901.813953029696 87 1 1 87 87
156	2510094 20838 456 98140 46.79772947558 9989.464016844113 462 0.099999999998545 0.10000000000036 46.200000000004 4.6200000000007
157	2530932 3090 457 96759 47.528226303658 9844.258037332589 104 1 1 104 104
158	2534022 3089 565 97613 58.009840032086 9928.011966704749 104 1 1 104 104
159	2537111 22365 568 98284 58.109840032086 9999.446985609437 496 0.099999999998545 0.10000000000036 49.600000000003 4.9600000000005
160	2559476 2164 571 97273 58.586738131488 9894.237107154237 73 1 1 73 73
161	2561640 2807 581 96801 59.086921152284 9847.202846002404 95 1 1 95 95
162	2564447 11287 585 98271 59.509695669513 9998.869716755102 380 1 1 380 380
163	2575734 21575 588 98276 59.609695669513 9998.969716755102 478 0.099999999998545 0.18344070792401 48.070416715655 4.85364612524
164	2597309 11900 597 98105 61.328136094157 9983.869688944001 401 1 1 401 401
165	2609209 3231 601 97233 62.600953235696 9891.12933577809 109 1 1 109 109
166	2612440 11547 609 98233 62.770340217444 9996.550027303466 389 1 1 389 389
167	2623987 2844 611 97621 62.83006087878 9928.400412385201 96 1 1 96 96
168	2626831 22199 614 98238 62.870340217444 9996.650027303466 492 0.099999999998545 0.18576325632876 49.34124832592 4.9579656454968
169	2649030 3286 637 97029 68.243046383688 9870.5460542993 111 1 1 111 111
170	2652316 22583 640 98248 68.343046383688 9997.521044644325 501 0.099999999998545 0.17929890001415 50.340404471897 5.0742509790853
171	2674899 11571 641 98241 68.792534195802 9997.421044644325 390 1 1 390 390
172	2686470 11616 673 98281 71.513477002664 9999.346985609437 392 1 1 392 392
173	2698086 2433 677 96945 71.829551217659 9860.683717111048 82 1 1 82 82
174	2700519 12716 681 97785 72.005912418388 9945.119987378361 428 1 1 428 428
175	2713235 23316 686 97790 72.105912418388 9945.219987378361 516 0.099999999998545 0.19440354235098 51.814757794589 5.2171398672341
176	2736551 10976 709 98165 74.824059039247 9990.581961869083 370 1 1 370 370
177	2747527 20658 716 98168 74.924059039247 9990.681961869083 458 0.099999999998545 0.10000000000036 45.799999999998 4.5799999999997
178	2768185 3022 731 98151 76.020426082354 9989.748771116406 102 1 1 102 102
179	2771207 10713 801 98185 81.967862981223 9992.867441774549 361 1 1 361 361
180	2781920 20449 806 98188 82.067862981223 9992.967441774549 453 0.099999999998545 0.19746150603351 45.423818507126 4.56495713809