file 5922612 1767628866                                         
version 3
run Uniform-74-20260105-17:01:06-25051
attr configname Uniform
attr datetime 20260105-17:01:06
attr datetimef 20260105-170106
attr experiment Uniform
attr inifile omnetpp.ini
attr iterationvars "$N=100, $p=0.9"
attr iterationvarsd N=100/p=0.9
attr iterationvarsf N=100,p=0.9-
attr measurement "$N=100, $p=0.9"
attr network progetto.DatabaseNetwork
attr processid 25051
attr repetition 4
attr replication #4
attr resultdir results
attr runnumber 74
attr seedset 4
itervar N 100
itervar p 0.9
config description "Uniform distribution - varia N e p"
config *.user[*].tableDistribution "\"uniform\""
config *.numUsers 100
config *.user[*].readProbability 0.9
config network progetto.DatabaseNetwork
config sim-time-limit 10000s
config cpu-time-limit 3600s
config repeat 5
config seed-set 4
config output-vector-file "results/Uniform-$N=100, $p=0.9-4.vec"
config output-scalar-file "results/Uniform-$N=100, $p=0.9-4.sca"
config result-dir results
config **.vector-recording true
config **.scalar-recording true
config *.numTables 20
config *.user[*].lambda 0.05
config *.user[*].serviceTime 0.1s

vector 0 DatabaseNetwork.user[0] AccessInterval ETV
vector 1 DatabaseNetwork.user[1] AccessInterval ETV
vector 2 DatabaseNetwork.user[2] AccessInterval ETV
vector 3 DatabaseNetwork.user[3] AccessInterval ETV
vector 4 DatabaseNetwork.user[4] AccessInterval ETV
vector 5 DatabaseNetwork.user[5] AccessInterval ETV
vector 6 DatabaseNetwork.user[6] AccessInterval ETV
vector 7 DatabaseNetwork.user[7] AccessInterval ETV
vector 8 DatabaseNetwork.user[8] AccessInterval ETV
vector 9 DatabaseNetwork.user[9] AccessInterval ETV
vector 10 DatabaseNetwork.user[10] AccessInterval ETV
vector 11 DatabaseNetwork.user[11] AccessInterval ETV
vector 12 DatabaseNetwork.user[12] AccessInterval ETV
vector 13 DatabaseNetwork.user[13] AccessInterval ETV
vector 14 DatabaseNetwork.user[14] AccessInterval ETV
vector 15 DatabaseNetwork.user[15] AccessInterval ETV
vector 16 DatabaseNetwork.user[16] AccessInterval ETV
vector 17 DatabaseNetwork.user[17] AccessInterval ETV
vector 18 DatabaseNetwork.user[18] AccessInterval ETV
vector 19 DatabaseNetwork.user[19] AccessInterval ETV
vector 20 DatabaseNetwork.user[20] AccessInterval ETV
vector 21 DatabaseNetwork.user[21] AccessInterval ETV
vector 22 DatabaseNetwork.user[22] AccessInterval ETV
vector 23 DatabaseNetwork.user[23] AccessInterval ETV
vector 24 DatabaseNetwork.user[24] AccessInterval ETV
vector 25 DatabaseNetwork.user[25] AccessInterval ETV
vector 26 DatabaseNetwork.user[26] AccessInterval ETV
vector 27 DatabaseNetwork.user[27] AccessInterval ETV
vector 28 DatabaseNetwork.user[28] AccessInterval ETV
vector 29 DatabaseNetwork.user[29] AccessInterval ETV
vector 30 DatabaseNetwork.user[30] AccessInterval ETV
vector 31 DatabaseNetwork.user[31] AccessInterval ETV
vector 32 DatabaseNetwork.user[32] AccessInterval ETV
vector 33 DatabaseNetwork.user[33] AccessInterval ETV
vector 34 DatabaseNetwork.user[34] AccessInterval ETV
vector 35 DatabaseNetwork.user[35] AccessInterval ETV
vector 36 DatabaseNetwork.user[36] AccessInterval ETV
vector 37 DatabaseNetwork.user[37] AccessInterval ETV
vector 38 DatabaseNetwork.user[38] AccessInterval ETV
vector 39 DatabaseNetwork.user[39] AccessInterval ETV
vector 40 DatabaseNetwork.user[40] AccessInterval ETV
vector 41 DatabaseNetwork.user[41] AccessInterval ETV
vector 42 DatabaseNetwork.user[42] AccessInterval ETV
vector 43 DatabaseNetwork.user[43] AccessInterval ETV
vector 44 DatabaseNetwork.user[44] AccessInterval ETV
vector 45 DatabaseNetwork.user[45] AccessInterval ETV
vector 46 DatabaseNetwork.user[46] AccessInterval ETV
vector 47 DatabaseNetwork.user[47] AccessInterval ETV
vector 48 DatabaseNetwork.user[48] AccessInterval ETV
vector 49 DatabaseNetwork.user[49] AccessInterval ETV
vector 50 DatabaseNetwork.user[50] AccessInterval ETV
vector 51 DatabaseNetwork.user[51] AccessInterval ETV
vector 52 DatabaseNetwork.user[52] AccessInterval ETV
vector 53 DatabaseNetwork.user[53] AccessInterval ETV
vector 54 DatabaseNetwork.user[54] AccessInterval ETV
vector 55 DatabaseNetwork.user[55] AccessInterval ETV
vector 56 DatabaseNetwork.user[56] AccessInterval ETV
vector 57 DatabaseNetwork.user[57] AccessInterval ETV
vector 58 DatabaseNetwork.user[58] AccessInterval ETV
vector 59 DatabaseNetwork.user[59] AccessInterval ETV
vector 60 DatabaseNetwork.user[60] AccessInterval ETV
vector 61 DatabaseNetwork.user[61] AccessInterval ETV
vector 62 DatabaseNetwork.user[62] AccessInterval ETV
vector 63 DatabaseNetwork.user[63] AccessInterval ETV
vector 64 DatabaseNetwork.user[64] AccessInterval ETV
vector 65 DatabaseNetwork.user[65] AccessInterval ETV
vector 66 DatabaseNetwork.user[66] AccessInterval ETV
vector 67 DatabaseNetwork.user[67] AccessInterval ETV
vector 68 DatabaseNetwork.user[68] AccessInterval ETV
vector 69 DatabaseNetwork.user[69] AccessInterval ETV
vector 70 DatabaseNetwork.user[70] AccessInterval ETV
vector 71 DatabaseNetwork.user[71] AccessInterval ETV
vector 72 DatabaseNetwork.user[72] AccessInterval ETV
vector 73 DatabaseNetwork.user[73] AccessInterval ETV
vector 74 DatabaseNetwork.user[74] AccessInterval ETV
vector 75 DatabaseNetwork.user[75] AccessInterval ETV
vector 76 DatabaseNetwork.user[76] AccessInterval ETV
vector 77 DatabaseNetwork.user[77] AccessInterval ETV
vector 78 DatabaseNetwork.user[78] AccessInterval ETV
vector 79 DatabaseNetwork.user[79] AccessInterval ETV
vector 80 DatabaseNetwork.user[80] AccessInterval ETV
vector 81 DatabaseNetwork.user[81] AccessInterval ETV
vector 82 DatabaseNetwork.user[82] AccessInterval ETV
vector 83 DatabaseNetwork.user[83] AccessInterval ETV
vector 84 DatabaseNetwork.user[84] AccessInterval ETV
vector 85 DatabaseNetwork.user[85] AccessInterval ETV
vector 86 DatabaseNetwork.user[86] AccessInterval ETV
vector 87 DatabaseNetwork.user[87] AccessInterval ETV
vector 88 DatabaseNetwork.user[88] AccessInterval ETV
vector 89 DatabaseNetwork.user[89] AccessInterval ETV
vector 90 DatabaseNetwork.user[90] AccessInterval ETV
vector 91 DatabaseNetwork.user[91] AccessInterval ETV
vector 92 DatabaseNetwork.user[92] AccessInterval ETV
vector 93 DatabaseNetwork.user[93] AccessInterval ETV
vector 94 DatabaseNetwork.user[94] AccessInterval ETV
vector 95 DatabaseNetwork.user[95] AccessInterval ETV
vector 96 DatabaseNetwork.user[96] AccessInterval ETV
vector 97 DatabaseNetwork.user[97] AccessInterval ETV
vector 98 DatabaseNetwork.user[98] AccessInterval ETV
vector 99 DatabaseNetwork.user[99] AccessInterval ETV
vector 100 DatabaseNetwork.user[21] WriteAccesses ETV
vector 101 DatabaseNetwork.user[14] ReadAccesses ETV
vector 102 DatabaseNetwork.user[32] ReadAccesses ETV
vector 103 DatabaseNetwork.user[21] WaitTime ETV
vector 104 DatabaseNetwork.user[14] WaitTime ETV
vector 105 DatabaseNetwork.user[32] WaitTime ETV
vector 106 DatabaseNetwork.user[41] ReadAccesses ETV
vector 107 DatabaseNetwork.user[41] WaitTime ETV
vector 108 DatabaseNetwork.user[67] ReadAccesses ETV
vector 109 DatabaseNetwork.user[43] WriteAccesses ETV
vector 110 DatabaseNetwork.user[67] WaitTime ETV
vector 111 DatabaseNetwork.user[36] WriteAccesses ETV
vector 112 DatabaseNetwork.user[43] WaitTime ETV
vector 113 DatabaseNetwork.user[99] ReadAccesses ETV
vector 114 DatabaseNetwork.user[36] WaitTime ETV
vector 115 DatabaseNetwork.user[99] WaitTime ETV
vector 116 DatabaseNetwork.user[51] ReadAccesses ETV
vector 117 DatabaseNetwork.user[51] WaitTime ETV
vector 118 DatabaseNetwork.user[50] ReadAccesses ETV
vector 119 DatabaseNetwork.user[50] WaitTime ETV
vector 120 DatabaseNetwork.user[95] ReadAccesses ETV
vector 121 DatabaseNetwork.user[95] WaitTime ETV
vector 122 DatabaseNetwork.user[66] ReadAccesses ETV
vector 123 DatabaseNetwork.user[66] WaitTime ETV
vector 124 DatabaseNetwork.user[85] ReadAccesses ETV
vector 125 DatabaseNetwork.user[11] WriteAccesses ETV
vector 126 DatabaseNetwork.user[85] WaitTime ETV
vector 127 DatabaseNetwork.user[11] WaitTime ETV
vector 128 DatabaseNetwork.user[68] WriteAccesses ETV
vector 129 DatabaseNetwork.user[68] WaitTime ETV
vector 130 DatabaseNetwork.user[28] ReadAccesses ETV
vector 131 DatabaseNetwork.user[54] ReadAccesses ETV
vector 132 DatabaseNetwork.user[28] WaitTime ETV
vector 133 DatabaseNetwork.user[54] WaitTime ETV
vector 134 DatabaseNetwork.user[3] ReadAccesses ETV
vector 135 DatabaseNetwork.user[48] ReadAccesses ETV
vector 136 DatabaseNetwork.user[53] ReadAccesses ETV
vector 137 DatabaseNetwork.user[3] WaitTime ETV
vector 138 DatabaseNetwork.user[48] WaitTime ETV
vector 139 DatabaseNetwork.user[86] WriteAccesses ETV
vector 140 DatabaseNetwork.user[53] WaitTime ETV
vector 141 DatabaseNetwork.user[73] ReadAccesses ETV
vector 142 DatabaseNetwork.user[86] WaitTime ETV
vector 143 DatabaseNetwork.user[73] WaitTime ETV
vector 144 DatabaseNetwork.user[14] WriteAccesses ETV
vector 145 DatabaseNetwork.user[22] ReadAccesses ETV
vector 146 DatabaseNetwork.user[22] WaitTime ETV
vector 147 DatabaseNetwork.user[71] WriteAccesses ETV
vector 148 DatabaseNetwork.user[71] WaitTime ETV
vector 149 DatabaseNetwork.user[10] ReadAccesses ETV
vector 150 DatabaseNetwork.user[10] WaitTime ETV
vector 151 DatabaseNetwork.user[83] ReadAccesses ETV
vector 152 DatabaseNetwork.user[13] ReadAccesses ETV
vector 153 DatabaseNetwork.user[83] WaitTime ETV
vector 154 DatabaseNetwork.user[13] WaitTime ETV
vector 155 DatabaseNetwork.user[69] WriteAccesses ETV
vector 156 DatabaseNetwork.user[69] WaitTime ETV
vector 157 DatabaseNetwork.user[77] ReadAccesses ETV
vector 158 DatabaseNetwork.user[77] WaitTime ETV
vector 159 DatabaseNetwork.user[97] ReadAccesses ETV
vector 160 DatabaseNetwork.user[16] ReadAccesses ETV
vector 161 DatabaseNetwork.user[94] ReadAccesses ETV
vector 162 DatabaseNetwork.user[97] WaitTime ETV
vector 163 DatabaseNetwork.user[16] WaitTime ETV
vector 164 DatabaseNetwork.user[94] WaitTime ETV
vector 165 DatabaseNetwork.user[65] ReadAccesses ETV
vector 166 DatabaseNetwork.user[65] WaitTime ETV
vector 167 DatabaseNetwork.user[35] ReadAccesses ETV
vector 168 DatabaseNetwork.user[35] WaitTime ETV
vector 169 DatabaseNetwork.user[65] WriteAccesses ETV
vector 170 DatabaseNetwork.user[75] ReadAccesses ETV
vector 171 DatabaseNetwork.user[75] WaitTime ETV
vector 172 DatabaseNetwork.user[41] WriteAccesses ETV
vector 173 DatabaseNetwork.user[89] ReadAccesses ETV
vector 174 DatabaseNetwork.user[89] WaitTime ETV
vector 175 DatabaseNetwork.user[93] ReadAccesses ETV
vector 176 DatabaseNetwork.user[36] ReadAccesses ETV
vector 177 DatabaseNetwork.user[25] ReadAccesses ETV
vector 178 DatabaseNetwork.user[93] WaitTime ETV
vector 179 DatabaseNetwork.user[25] WaitTime ETV
vector 180 DatabaseNetwork.user[79] ReadAccesses ETV
vector 181 DatabaseNetwork.user[88] ReadAccesses ETV
vector 182 DatabaseNetwork.user[69] ReadAccesses ETV
vector 183 DatabaseNetwork.user[79] WaitTime ETV
vector 184 DatabaseNetwork.user[88] WaitTime ETV
vector 185 DatabaseNetwork.user[43] ReadAccesses ETV
vector 186 DatabaseNetwork.user[34] ReadAccesses ETV
vector 187 DatabaseNetwork.user[34] WaitTime ETV
vector 188 DatabaseNetwork.user[29] ReadAccesses ETV
vector 189 DatabaseNetwork.user[29] WaitTime ETV
vector 190 DatabaseNetwork.user[80] ReadAccesses ETV
vector 191 DatabaseNetwork.user[80] WaitTime ETV
vector 192 DatabaseNetwork.user[76] ReadAccesses ETV
vector 193 DatabaseNetwork.user[76] WaitTime ETV
vector 194 DatabaseNetwork.user[58] ReadAccesses ETV
vector 195 DatabaseNetwork.user[58] WaitTime ETV
vector 196 DatabaseNetwork.user[18] ReadAccesses ETV
vector 197 DatabaseNetwork.user[40] ReadAccesses ETV
vector 198 DatabaseNetwork.user[18] WaitTime ETV
vector 199 DatabaseNetwork.user[40] WaitTime ETV
vector 200 DatabaseNetwork.user[49] WriteAccesses ETV
vector 201 DatabaseNetwork.user[49] WaitTime ETV
vector 202 DatabaseNetwork.user[47] ReadAccesses ETV
vector 203 DatabaseNetwork.user[47] WaitTime ETV
vector 204 DatabaseNetwork.user[68] ReadAccesses ETV
vector 205 DatabaseNetwork.user[91] ReadAccesses ETV
vector 206 DatabaseNetwork.user[91] WaitTime ETV
vector 207 DatabaseNetwork.user[22] WriteAccesses ETV
vector 208 DatabaseNetwork.user[90] ReadAccesses ETV
vector 209 DatabaseNetwork.user[90] WaitTime ETV
vector 210 DatabaseNetwork.user[64] ReadAccesses ETV
vector 211 DatabaseNetwork.user[64] WaitTime ETV
vector 212 DatabaseNetwork.user[72] WriteAccesses ETV
vector 213 DatabaseNetwork.user[72] WaitTime ETV
vector 214 DatabaseNetwork.user[60] ReadAccesses ETV
vector 215 DatabaseNetwork.user[60] WaitTime ETV
vector 216 DatabaseNetwork.user[70] ReadAccesses ETV
vector 217 DatabaseNetwork.user[2] ReadAccesses ETV
vector 218 DatabaseNetwork.user[70] WaitTime ETV
vector 219 DatabaseNetwork.user[2] WaitTime ETV
vector 220 DatabaseNetwork.user[96] ReadAccesses ETV
vector 221 DatabaseNetwork.user[96] WaitTime ETV
vector 222 DatabaseNetwork.user[23] WriteAccesses ETV
vector 223 DatabaseNetwork.user[23] WaitTime ETV
vector 224 DatabaseNetwork.user[87] ReadAccesses ETV
vector 225 DatabaseNetwork.user[87] WaitTime ETV
vector 226 DatabaseNetwork.user[71] ReadAccesses ETV
vector 227 DatabaseNetwork.user[30] WriteAccesses ETV
vector 228 DatabaseNetwork.user[9] ReadAccesses ETV
vector 229 DatabaseNetwork.user[30] WaitTime ETV
vector 230 DatabaseNetwork.user[9] WaitTime ETV
vector 231 DatabaseNetwork.user[52] WriteAccesses ETV
vector 232 DatabaseNetwork.user[52] WaitTime ETV
vector 233 DatabaseNetwork.user[27] WriteAccesses ETV
vector 234 DatabaseNetwork.user[11] ReadAccesses ETV
vector 235 DatabaseNetwork.user[27] WaitTime ETV
vector 236 DatabaseNetwork.user[7] ReadAccesses ETV
vector 237 DatabaseNetwork.user[7] WaitTime ETV
vector 238 DatabaseNetwork.user[33] ReadAccesses ETV
vector 239 DatabaseNetwork.user[33] WaitTime ETV
vector 240 DatabaseNetwork.user[94] WriteAccesses ETV
vector 241 DatabaseNetwork.user[82] ReadAccesses ETV
vector 242 DatabaseNetwork.user[98] ReadAccesses ETV
vector 243 DatabaseNetwork.user[82] WaitTime ETV
vector 244 DatabaseNetwork.user[98] WaitTime ETV
vector 245 DatabaseNetwork.user[81] ReadAccesses ETV
vector 246 DatabaseNetwork.user[19] ReadAccesses ETV
vector 247 DatabaseNetwork.user[81] WaitTime ETV
vector 248 DatabaseNetwork.user[19] WaitTime ETV
vector 249 DatabaseNetwork.user[74] ReadAccesses ETV
vector 250 DatabaseNetwork.user[74] WaitTime ETV
vector 251 DatabaseNetwork.user[37] WriteAccesses ETV
vector 252 DatabaseNetwork.user[37] WaitTime ETV
vector 253 DatabaseNetwork.user[78] ReadAccesses ETV
vector 254 DatabaseNetwork.user[78] WaitTime ETV
vector 255 DatabaseNetwork.user[21] ReadAccesses ETV
vector 256 DatabaseNetwork.user[23] ReadAccesses ETV
vector 257 DatabaseNetwork.user[30] ReadAccesses ETV
vector 258 DatabaseNetwork.user[92] WriteAccesses ETV
vector 259 DatabaseNetwork.user[92] WaitTime ETV
vector 260 DatabaseNetwork.user[73] WriteAccesses ETV
vector 261 DatabaseNetwork.user[88] WriteAccesses ETV
vector 262 DatabaseNetwork.user[8] ReadAccesses ETV
vector 263 DatabaseNetwork.user[15] ReadAccesses ETV
vector 264 DatabaseNetwork.user[8] WaitTime ETV
vector 265 DatabaseNetwork.user[15] WaitTime ETV
vector 266 DatabaseNetwork.user[53] WriteAccesses ETV
vector 267 DatabaseNetwork.user[6] ReadAccesses ETV
vector 268 DatabaseNetwork.user[6] WaitTime ETV
vector 269 DatabaseNetwork.user[86] ReadAccesses ETV
vector 270 DatabaseNetwork.user[56] ReadAccesses ETV
vector 271 DatabaseNetwork.user[56] WaitTime ETV
vector 272 DatabaseNetwork.user[54] WriteAccesses ETV
vector 273 DatabaseNetwork.user[84] ReadAccesses ETV
vector 274 DatabaseNetwork.user[84] WaitTime ETV
vector 275 DatabaseNetwork.user[49] ReadAccesses ETV
vector 276 DatabaseNetwork.user[20] WriteAccesses ETV
vector 277 DatabaseNetwork.user[20] WaitTime ETV
vector 278 DatabaseNetwork.user[44] ReadAccesses ETV
vector 279 DatabaseNetwork.user[44] WaitTime ETV
vector 280 DatabaseNetwork.user[58] WriteAccesses ETV
vector 281 DatabaseNetwork.user[39] ReadAccesses ETV
vector 282 DatabaseNetwork.user[31] ReadAccesses ETV
vector 283 DatabaseNetwork.user[39] WaitTime ETV
vector 284 DatabaseNetwork.user[31] WaitTime ETV
vector 285 DatabaseNetwork.user[82] WriteAccesses ETV
vector 286 DatabaseNetwork.user[63] ReadAccesses ETV
vector 287 DatabaseNetwork.user[63] WaitTime ETV
vector 288 DatabaseNetwork.user[57] ReadAccesses ETV
vector 289 DatabaseNetwork.user[57] WaitTime ETV
vector 290 DatabaseNetwork.user[5] ReadAccesses ETV
vector 291 DatabaseNetwork.user[5] WaitTime ETV
vector 292 DatabaseNetwork.user[91] WriteAccesses ETV
vector 293 DatabaseNetwork.user[24] ReadAccesses ETV
vector 294 DatabaseNetwork.user[24] WaitTime ETV
vector 295 DatabaseNetwork.user[55] ReadAccesses ETV
vector 296 DatabaseNetwork.user[46] ReadAccesses ETV
vector 297 DatabaseNetwork.user[55] WaitTime ETV
vector 298 DatabaseNetwork.user[46] WaitTime ETV
vector 299 DatabaseNetwork.user[61] ReadAccesses ETV
vector 300 DatabaseNetwork.user[61] WaitTime ETV
vector 301 DatabaseNetwork.user[52] ReadAccesses ETV
vector 302 DatabaseNetwork.user[72] ReadAccesses ETV
vector 303 DatabaseNetwork.user[8] WriteAccesses ETV
vector 304 DatabaseNetwork.user[1] ReadAccesses ETV
vector 305 DatabaseNetwork.user[1] WaitTime ETV
vector 306 DatabaseNetwork.user[17] ReadAccesses ETV
vector 307 DatabaseNetwork.user[17] WaitTime ETV
vector 308 DatabaseNetwork.user[27] ReadAccesses ETV
vector 309 DatabaseNetwork.user[40] WriteAccesses ETV
vector 310 DatabaseNetwork.user[20] ReadAccesses ETV
vector 311 DatabaseNetwork.user[67] WriteAccesses ETV
vector 312 DatabaseNetwork.user[59] ReadAccesses ETV
vector 313 DatabaseNetwork.user[59] WaitTime ETV
vector 314 DatabaseNetwork.user[62] ReadAccesses ETV
vector 315 DatabaseNetwork.user[62] WaitTime ETV
vector 316 DatabaseNetwork.user[45] ReadAccesses ETV
vector 317 DatabaseNetwork.user[45] WaitTime ETV
vector 318 DatabaseNetwork.user[42] ReadAccesses ETV
vector 319 DatabaseNetwork.user[42] WaitTime ETV
vector 320 DatabaseNetwork.user[46] WriteAccesses ETV
vector 321 DatabaseNetwork.user[38] WriteAccesses ETV
vector 322 DatabaseNetwork.user[38] WaitTime ETV
vector 323 DatabaseNetwork.user[92] ReadAccesses ETV
vector 324 DatabaseNetwork.user[0] ReadAccesses ETV
vector 325 DatabaseNetwork.user[0] WaitTime ETV
vector 326 DatabaseNetwork.user[4] ReadAccesses ETV
vector 327 DatabaseNetwork.user[4] WaitTime ETV
vector 328 DatabaseNetwork.user[76] WriteAccesses ETV
vector 329 DatabaseNetwork.user[12] ReadAccesses ETV
vector 330 DatabaseNetwork.user[12] WaitTime ETV
vector 331 DatabaseNetwork.user[2] WriteAccesses ETV
vector 332 DatabaseNetwork.user[59] WriteAccesses ETV
vector 333 DatabaseNetwork.user[89] WriteAccesses ETV
vector 334 DatabaseNetwork.user[26] ReadAccesses ETV
vector 335 DatabaseNetwork.user[26] WaitTime ETV
vector 336 DatabaseNetwork.user[26] WriteAccesses ETV
vector 337 DatabaseNetwork.user[98] WriteAccesses ETV
vector 338 DatabaseNetwork.user[42] WriteAccesses ETV
vector 339 DatabaseNetwork.user[17] WriteAccesses ETV
vector 340 DatabaseNetwork.user[38] ReadAccesses ETV
vector 341 DatabaseNetwork.user[19] WriteAccesses ETV
vector 342 DatabaseNetwork.user[37] ReadAccesses ETV
vector 343 DatabaseNetwork.user[60] WriteAccesses ETV
vector 344 DatabaseNetwork.user[57] WriteAccesses ETV
vector 345 DatabaseNetwork.user[81] WriteAccesses ETV
vector 346 DatabaseNetwork.user[48] WriteAccesses ETV
vector 347 DatabaseNetwork.user[95] WriteAccesses ETV
vector 348 DatabaseNetwork.user[18] WriteAccesses ETV
vector 349 DatabaseNetwork.user[84] WriteAccesses ETV
vector 350 DatabaseNetwork.user[44] WriteAccesses ETV
vector 351 DatabaseNetwork.user[79] WriteAccesses ETV
vector 352 DatabaseNetwork.user[80] WriteAccesses ETV
vector 353 DatabaseNetwork.user[62] WriteAccesses ETV
vector 354 DatabaseNetwork.user[63] WriteAccesses ETV
vector 355 DatabaseNetwork.user[93] WriteAccesses ETV
vector 356 DatabaseNetwork.user[25] WriteAccesses ETV
vector 357 DatabaseNetwork.user[24] WriteAccesses ETV
vector 358 DatabaseNetwork.user[33] WriteAccesses ETV
vector 359 DatabaseNetwork.user[0] WriteAccesses ETV
vector 360 DatabaseNetwork.user[96] WriteAccesses ETV
vector 361 DatabaseNetwork.user[90] WriteAccesses ETV
vector 362 DatabaseNetwork.user[64] WriteAccesses ETV
vector 363 DatabaseNetwork.user[10] WriteAccesses ETV
vector 364 DatabaseNetwork.user[50] WriteAccesses ETV
vector 365 DatabaseNetwork.user[15] WriteAccesses ETV
vector 366 DatabaseNetwork.user[47] WriteAccesses ETV
vector 367 DatabaseNetwork.user[87] WriteAccesses ETV
vector 368 DatabaseNetwork.user[75] WriteAccesses ETV
vector 369 DatabaseNetwork.user[3] WriteAccesses ETV
vector 370 DatabaseNetwork.user[70] WriteAccesses ETV
vector 371 DatabaseNetwork.user[56] WriteAccesses ETV
vector 372 DatabaseNetwork.user[13] WriteAccesses ETV
vector 373 DatabaseNetwork.user[99] WriteAccesses ETV
vector 374 DatabaseNetwork.user[85] WriteAccesses ETV
vector 375 DatabaseNetwork.user[34] WriteAccesses ETV
vector 376 DatabaseNetwork.user[83] WriteAccesses ETV
vector 377 DatabaseNetwork.user[39] WriteAccesses ETV
vector 378 DatabaseNetwork.user[78] WriteAccesses ETV
vector 379 DatabaseNetwork.user[61] WriteAccesses ETV
vector 380 DatabaseNetwork.user[29] WriteAccesses ETV
vector 381 DatabaseNetwork.user[31] WriteAccesses ETV
vector 382 DatabaseNetwork.user[55] WriteAccesses ETV
vector 383 DatabaseNetwork.user[66] WriteAccesses ETV
vector 384 DatabaseNetwork.user[5] WriteAccesses ETV
vector 385 DatabaseNetwork.user[9] WriteAccesses ETV
vector 386 DatabaseNetwork.user[45] WriteAccesses ETV
vector 387 DatabaseNetwork.user[6] WriteAccesses ETV
vector 388 DatabaseNetwork.user[74] WriteAccesses ETV
vector 389 DatabaseNetwork.user[77] WriteAccesses ETV
vector 390 DatabaseNetwork.user[28] WriteAccesses ETV
vector 391 DatabaseNetwork.user[32] WriteAccesses ETV
vector 392 DatabaseNetwork.user[1] WriteAccesses ETV
vector 393 DatabaseNetwork.user[4] WriteAccesses ETV
vector 394 DatabaseNetwork.user[7] WriteAccesses ETV
vector 395 DatabaseNetwork.user[35] WriteAccesses ETV
vector 396 DatabaseNetwork.user[97] WriteAccesses ETV
vector 397 DatabaseNetwork.user[51] WriteAccesses ETV
vector 398 DatabaseNetwork.user[12] WriteAccesses ETV
vector 399 DatabaseNetwork.user[16] WriteAccesses ETV
0	22052 20903 0 197949 0 9978.121290546262 496 0.012074124612925 151.5771546567 10003.368277487 404072.1900601
1	42955 21078 0 197637 0 9962.412875196589 500 0.11173618280461 115.18075728067 10032.0765032 396475.63987159
2	64033 21554 0 197317 0 9946.211095223446 512 0.017505762028236 131.19391599351 10005.437531527 384082.20821868
3	85587 20187 0 198021 0 9980.942048577278 480 0.070057530858689 158.34853002799 10022.360150434 411509.31502682
4	105774 19881 0 197555 0 9958.832177593804 472 0.0048941913376791 222.30832138436 10004.579550141 426426.69884466
5	125655 19346 0 198049 0 9981.524656271468 459 0.025791063055574 131.60192713701 10006.850845997 434417.72663177
6	145001 22818 0 198201 0 9988.952994559882 542 0.01774407387649 113.52129870784 10038.197677654 374401.90285741
7	167819 21960 0 198007 0 9980.829429984997 521 0.070236491740982 138.27885667274 10002.73782261 387655.99355401
8	189779 21530 0 198349 0 9997.446026004012 512 0.1868304749332 170.33502890713 10021.215149397 401664.11114988
9	211309 20405 0 198225 0 9991.38211796098 485 0.0004518036539097 130.13476204173 10011.604741301 430117.76360774
10	231714 19170 0 198313 0 9996.509804427017 445 0.087823191856572 139.24375247447 10011.367649547 445806.54965182
11	250884 20945 0 198435 0 9999.856223303993 486 0.00061379290463435 145.52115947366 10000.547371791 412750.3603192
12	271829 20973 0 198389 0 9998.777279132761 487 0.051400297954184 126.62861486299 10007.588006254 386089.32601039
13	292802 21026 0 198161 0 9987.609525784718 487 0.072808967927342 173.77091552889 10004.872515981 427403.67165634
14	313828 21271 0 198379 0 9998.466391138018 494 0.037986715763199 142.03879635957 10008.602946016 374737.5140055
15	335099 20068 0 198305 0 9995.855634550158 466 0.0029276079142465 133.29516050925 10005.857833437 412942.7872602
16	355167 21204 0 198053 0 9981.645955689685 491 0.058937265770526 130.4021538872 10003.866919914 388613.66587332
17	376371 22282 0 198109 0 9984.408837923427 517 0.034324487846151 168.61977312987 10011.89939593 388261.0156325
18	398653 20585 0 198125 0 9985.775492052176 477 0.010776088221176 119.07557650739 10015.191090719 409508.32506347
19	419238 20431 0 197891 0 9975.386293525824 474 0.023058603711706 129.27618528765 10078.314382293 426998.52789723
20	439669 21427 0 197469 0 9954.347677239176 497 0.033910428560851 135.77092207378 10007.051182205 409138.54263655
21	461096 21228 0 197241 0 9940.958482693732 493 0.020477769622619 128.15853731844 10030.727049353 402484.56842982
22	482324 22099 0 198431 0 9999.756568124119 512 0.0078351075582647 95.732102216174 10001.08907554 358458.19554509
23	504423 20638 0 197945 0 9977.971037701043 478 0.0091447909441672 174.62167167148 10023.209653905 410066.6426832
24	525061 22584 0 197805 0 9971.469113596114 524 0.019941214326379 147.02931349729 10004.078511977 388362.95595911
25	547645 21995 0 198409 0 9999.360201445591 510 0.14641321156978 164.72417995708 10026.87444658 413098.42671816
26	569640 21558 0 197727 0 9966.773388628773 499 0.056311750230609 145.12106544504 10055.088033667 413802.36287074
27	591198 20939 0 197049 0 9930.27787736291 486 0.098480547920706 175.44732551107 10014.247790169 412511.33606864
28	612137 21626 0 198427 0 9999.685822642203 501 0.093688370686451 111.57182087235 10043.948749896 388987.45968017
29	633763 20112 0 198079 0 9983.154527538221 467 0.071571853938199 210.13066373547 10007.71073732 468933.56980907
30	653875 21334 0 196807 0 9918.157333421003 494 0.015152871587553 104.46463134439 10005.978537928 397028.83423346
31	675209 21642 0 197979 0 9980.056114056565 502 0.016479108164589 107.35137498234 10030.961945616 392147.66186968
32	696851 19865 0 198403 0 9999.01695485483 460 0.15392307402875 143.02060744781 10001.972523833 447765.12394276
33	716716 21177 0 197831 0 9973.014593399455 491 0.01376886654365 116.36091314265 10008.770691434 390282.81394347
34	737893 21689 0 198299 0 9995.736413110562 503 0.04360463683343 175.48287749339 10008.809901844 416881.11208663
35	759582 22524 0 197509 0 9956.359264517129 522 0.02230096162991 150.76450130916 10010.464956993 373301.71038131
36	782106 20319 0 198277 0 9994.442423573349 472 5.5749047015316e-05 108.29119324129 10022.136862288 401953.63026638
37	802425 20327 0 198399 0 9998.962455715267 471 0.01960941008114 134.4994904339 10001.403679589 404841.05707537
38	822752 21621 0 198385 0 9998.665168795962 501 0.044321732557017 101.78646054135 10001.786664588 389947.51573741
39	844373 20931 0 197839 0 9973.308810543997 485 0.016830499958259 162.92885756772 10021.120004201 454867.93989892
40	865304 22849 0 198439 0 9999.863987539651 530 0.027082982037086 130.76095664841 10043.479067369 370368.61908349
41	888153 22366 0 198261 0 9993.424163764099 519 0.10109584713127 115.92105365973 10006.05739866 374524.49951074
42	910519 21942 0 197999 0 9980.731049500575 508 0.010843016628631 111.95509664283 10061.22456657 384255.23931137
43	932461 21258 0 197693 0 9965.589811644516 493 0.019809860504066 130.9763476901 10024.92899791 406122.39323371
44	953719 22330 0 198081 0 9983.186600541025 518 0.010797795084929 113.33541519393 10040.043911642 372515.26201078
45	976049 20766 0 198369 0 9998.323733071498 481 0.056443554145543 113.33861003921 10067.985284858 405547.96124136
46	996815 21631 0 197641 0 9962.880890684541 501 0.01805193716691 125.65607341308 10009.228163485 396575.25482952
47	1018446 21011 0 198157 0 9987.002033096373 488 0.0070298942149069 145.07319694486 10064.418914846 407015.84060414
48	1039457 23674 0 198169 0 9988.108412943093 549 0.0021693309033906 125.38047204417 10014.724721863 379113.23421809
49	1063131 21698 0 198269 0 9993.858495117994 503 0.004879156118163 129.16825314681 10072.98154537 419654.60370856
50	1084829 21517 0 198341 0 9997.134185310663 499 0.010384408941758 136.7834887739 10003.47027569 406073.95589768
51	1106346 21155 0 197869 0 9974.296933508883 490 0.004765516680209 144.6056079225 10013.28573424 421115.76434832
52	1127501 21436 0 197609 0 9961.923443074961 498 0.031010098868493 143.29976163663 10030.051087218 414586.48915304
53	1148937 21315 0 198391 0 9998.84368090359 494 0.025047654481013 147.63342473585 10010.313495578 427037.59070291
54	1170252 22536 0 198005 0 9980.795015315506 523 0.0029521239278352 153.40320659611 10004.236487461 417593.28003309
55	1192788 20586 0 198395 0 9998.878542682224 478 0.091702623966855 113.97333343906 10006.503113283 402450.93997601
56	1213374 22317 0 197867 0 9974.293232171878 517 0.0027505709596991 119.34978292244 10012.434089103 368794.37218512
57	1235691 20790 0 198353 0 9997.634458131521 483 0.10064662683485 114.97227869006 10083.070660412 413599.51208803
58	1256481 22668 0 198203 0 9988.965702654473 525 0.073908671913954 100.37449030134 10008.591374731 369371.38333921
59	1279149 22959 0 198413 0 9999.403644114365 533 0.020026976998303 113.5713608763 10017.206651677 378782.14144223
60	1302108 18381 0 198321 0 9996.759838523845 426 0.017334053604634 183.02726823281 10007.091254696 501648.84821461
61	1320489 22654 0 198257 0 9993.008766041198 525 0.028021305369997 131.76953145071 10000.184033887 382671.0099649
62	1343143 18578 0 198253 0 9992.900388892812 431 0.1818532992602 172.9193582331 10032.34794182 471391.11311626
63	1361721 21405 0 197915 0 9976.817714763346 495 0.0062864001042001 170.45449509741 10012.414951313 445883.81713448
64	1383126 20687 0 198165 0 9987.806850585668 480 0.067896780650677 150.19267829954 10058.353518296 421519.31135924
65	1403813 22126 0 198309 0 9996.139323469262 513 0.015134771603194 166.20357958534 10005.698989191 363914.29610289
66	1425939 20140 0 198129 0 9985.87745196468 466 0.036250388762701 159.43521620384 10008.907614974 427799.98502164
67	1446079 21835 0 197363 0 9948.170054268562 507 0.00012376383987706 136.47660212187 10006.05094016 433982.66558776