version 3
run Uniform-0-20260104-16:42:39-11527
attr configname Uniform
attr datetime 20260104-16:42:39
attr datetimef 20260104-164239
attr experiment Uniform
attr inifile omnetpp.ini
attr iterationvars ""
attr iterationvarsd ""
attr iterationvarsf ""
attr measurement ""
attr network progetto.DatabaseNetwork
attr processid 11527
attr repetition 0
attr replication #0
attr resultdir results
attr runnumber 0
attr seedset 0
config description "Tutte le tabelle hanno la stessa probabilità di essere scelte"
config *.user[*].tableDistribution "\"uniform\""
config network progetto.DatabaseNetwork
config sim-time-limit 1000s
config cpu-time-limit 300s
config *.numTables 20
config *.numUsers 60
config *.user[*].lambda 0.5
config *.user[*].serviceTime 0.5s
config *.user[*].readProbability 0.8

vector 0 DatabaseNetwork.user[0] AccessInterval ETV
vector 1 DatabaseNetwork.user[1] AccessInterval ETV
vector 2 DatabaseNetwork.user[2] AccessInterval ETV
vector 3 DatabaseNetwork.user[3] AccessInterval ETV
vector 4 DatabaseNetwork.user[4] AccessInterval ETV
vector 5 DatabaseNetwork.user[5] AccessInterval ETV
vector 6 DatabaseNetwork.user[6] AccessInterval ETV
vector 7 DatabaseNetwork.user[7] AccessInterval ETV
vector 8 DatabaseNetwork.user[8] AccessInterval ETV
vector 9 DatabaseNetwork.user[9] AccessInterval ETV
vector 10 DatabaseNetwork.user[10] AccessInterval ETV
vector 11 DatabaseNetwork.user[11] AccessInterval ETV
vector 12 DatabaseNetwork.user[12] AccessInterval ETV
vector 13 DatabaseNetwork.user[13] AccessInterval ETV
vector 14 DatabaseNetwork.user[14] AccessInterval ETV
vector 15 DatabaseNetwork.user[15] AccessInterval ETV
vector 16 DatabaseNetwork.user[16] AccessInterval ETV
vector 17 DatabaseNetwork.user[17] AccessInterval ETV
vector 18 DatabaseNetwork.user[18] AccessInterval ETV
vector 19 DatabaseNetwork.user[19] AccessInterval ETV
vector 20 DatabaseNetwork.user[20] AccessInterval ETV
vector 21 DatabaseNetwork.user[21] AccessInterval ETV
vector 22 DatabaseNetwork.user[22] AccessInterval ETV
vector 23 DatabaseNetwork.user[23] AccessInterval ETV
vector 24 DatabaseNetwork.user[24] AccessInterval ETV
vector 25 DatabaseNetwork.user[25] AccessInterval ETV
vector 26 DatabaseNetwork.user[26] AccessInterval ETV
vector 27 DatabaseNetwork.user[27] AccessInterval ETV
vector 28 DatabaseNetwork.user[28] AccessInterval ETV
vector 29 DatabaseNetwork.user[29] AccessInterval ETV
vector 30 DatabaseNetwork.user[30] AccessInterval ETV
vector 31 DatabaseNetwork.user[31] AccessInterval ETV
vector 32 DatabaseNetwork.user[32] AccessInterval ETV
vector 33 DatabaseNetwork.user[33] AccessInterval ETV
vector 34 DatabaseNetwork.user[34] AccessInterval ETV
vector 35 DatabaseNetwork.user[35] AccessInterval ETV
vector 36 DatabaseNetwork.user[36] AccessInterval ETV
vector 37 DatabaseNetwork.user[37] AccessInterval ETV
vector 38 DatabaseNetwork.user[38] AccessInterval ETV
vector 39 DatabaseNetwork.user[39] AccessInterval ETV
vector 40 DatabaseNetwork.user[40] AccessInterval ETV
vector 41 DatabaseNetwork.user[41] AccessInterval ETV
vector 42 DatabaseNetwork.user[42] AccessInterval ETV
vector 43 DatabaseNetwork.user[43] AccessInterval ETV
vector 44 DatabaseNetwork.user[44] AccessInterval ETV
vector 45 DatabaseNetwork.user[45] AccessInterval ETV
vector 46 DatabaseNetwork.user[46] AccessInterval ETV
vector 47 DatabaseNetwork.user[47] AccessInterval ETV
vector 48 DatabaseNetwork.user[48] AccessInterval ETV
vector 49 DatabaseNetwork.user[49] AccessInterval ETV
vector 50 DatabaseNetwork.user[50] AccessInterval ETV
vector 51 DatabaseNetwork.user[51] AccessInterval ETV
vector 52 DatabaseNetwork.user[52] AccessInterval ETV
vector 53 DatabaseNetwork.user[53] AccessInterval ETV
vector 54 DatabaseNetwork.user[54] AccessInterval ETV
vector 55 DatabaseNetwork.user[55] AccessInterval ETV
vector 56 DatabaseNetwork.user[56] AccessInterval ETV
vector 57 DatabaseNetwork.user[57] AccessInterval ETV
vector 58 DatabaseNetwork.user[58] AccessInterval ETV
vector 59 DatabaseNetwork.user[59] AccessInterval ETV
vector 60 DatabaseNetwork.user[32] ReadAccesses ETV
vector 61 DatabaseNetwork.user[15] ReadAccesses ETV
vector 62 DatabaseNetwork.user[28] ReadAccesses ETV
vector 63 DatabaseNetwork.user[30] ReadAccesses ETV
vector 64 DatabaseNetwork.user[57] WriteAccesses ETV
vector 65 DatabaseNetwork.user[48] ReadAccesses ETV
vector 66 DatabaseNetwork.user[37] ReadAccesses ETV
vector 67 DatabaseNetwork.user[52] WriteAccesses ETV
vector 68 DatabaseNetwork.user[32] WaitTime ETV
vector 69 DatabaseNetwork.user[15] WaitTime ETV
vector 70 DatabaseNetwork.user[17] ReadAccesses ETV
vector 71 DatabaseNetwork.user[28] WaitTime ETV
vector 72 DatabaseNetwork.user[30] WaitTime ETV
vector 73 DatabaseNetwork.user[13] WriteAccesses ETV
vector 74 DatabaseNetwork.user[57] WaitTime ETV
vector 75 DatabaseNetwork.user[48] WaitTime ETV
vector 76 DatabaseNetwork.user[37] WriteAccesses ETV
vector 77 DatabaseNetwork.user[37] WaitTime ETV
vector 78 DatabaseNetwork.user[29] ReadAccesses ETV
vector 79 DatabaseNetwork.user[33] ReadAccesses ETV
vector 80 DatabaseNetwork.user[18] ReadAccesses ETV
vector 81 DatabaseNetwork.user[11] WriteAccesses ETV
vector 82 DatabaseNetwork.user[25] ReadAccesses ETV
vector 83 DatabaseNetwork.user[58] WriteAccesses ETV
vector 84 DatabaseNetwork.user[8] WriteAccesses ETV
vector 85 DatabaseNetwork.user[17] WaitTime ETV
vector 86 DatabaseNetwork.user[12] ReadAccesses ETV
vector 87 DatabaseNetwork.user[13] WaitTime ETV
vector 88 DatabaseNetwork.user[44] WriteAccesses ETV
vector 89 DatabaseNetwork.user[52] WaitTime ETV
vector 90 DatabaseNetwork.user[59] WriteAccesses ETV
vector 91 DatabaseNetwork.user[41] ReadAccesses ETV
vector 92 DatabaseNetwork.user[19] WriteAccesses ETV
vector 93 DatabaseNetwork.user[23] WriteAccesses ETV
vector 94 DatabaseNetwork.user[29] WaitTime ETV
vector 95 DatabaseNetwork.user[44] ReadAccesses ETV
vector 96 DatabaseNetwork.user[33] WaitTime ETV
vector 97 DatabaseNetwork.user[18] WaitTime ETV
vector 98 DatabaseNetwork.user[45] ReadAccesses ETV
vector 99 DatabaseNetwork.user[56] WriteAccesses ETV
vector 100 DatabaseNetwork.user[25] WaitTime ETV
vector 101 DatabaseNetwork.user[22] ReadAccesses ETV
vector 102 DatabaseNetwork.user[53] ReadAccesses ETV
vector 103 DatabaseNetwork.user[58] WaitTime ETV
vector 104 DatabaseNetwork.user[6] ReadAccesses ETV
vector 105 DatabaseNetwork.user[0] ReadAccesses ETV
vector 106 DatabaseNetwork.user[8] WaitTime ETV
vector 107 DatabaseNetwork.user[12] WaitTime ETV
vector 108 DatabaseNetwork.user[24] ReadAccesses ETV
vector 109 DatabaseNetwork.user[51] ReadAccesses ETV
vector 110 DatabaseNetwork.user[11] WaitTime ETV
vector 111 DatabaseNetwork.user[41] WaitTime ETV
vector 112 DatabaseNetwork.user[1] WriteAccesses ETV
vector 113 DatabaseNetwork.user[23] WaitTime ETV
vector 114 DatabaseNetwork.user[4] ReadAccesses ETV
vector 115 DatabaseNetwork.user[44] WaitTime ETV
vector 116 DatabaseNetwork.user[11] ReadAccesses ETV
vector 117 DatabaseNetwork.user[59] ReadAccesses ETV
vector 118 DatabaseNetwork.user[9] WriteAccesses ETV
vector 119 DatabaseNetwork.user[23] ReadAccesses ETV
vector 120 DatabaseNetwork.user[56] WaitTime ETV
vector 121 DatabaseNetwork.user[22] WaitTime ETV
vector 122 DatabaseNetwork.user[53] WaitTime ETV
vector 123 DatabaseNetwork.user[50] ReadAccesses ETV
vector 124 DatabaseNetwork.user[6] WaitTime ETV
vector 125 DatabaseNetwork.user[10] ReadAccesses ETV
vector 126 DatabaseNetwork.user[31] ReadAccesses ETV
vector 127 DatabaseNetwork.user[0] WaitTime ETV
vector 128 DatabaseNetwork.user[45] WaitTime ETV
vector 129 DatabaseNetwork.user[56] ReadAccesses ETV
vector 130 DatabaseNetwork.user[24] WaitTime ETV
vector 131 DatabaseNetwork.user[51] WaitTime ETV
vector 132 DatabaseNetwork.user[47] ReadAccesses ETV
vector 133 DatabaseNetwork.user[28] WriteAccesses ETV
vector 134 DatabaseNetwork.user[4] WaitTime ETV
vector 135 DatabaseNetwork.user[59] WaitTime ETV
vector 136 DatabaseNetwork.user[9] WaitTime ETV
vector 137 DatabaseNetwork.user[52] ReadAccesses ETV
vector 138 DatabaseNetwork.user[2] ReadAccesses ETV
vector 139 DatabaseNetwork.user[9] ReadAccesses ETV
vector 140 DatabaseNetwork.user[50] WaitTime ETV
vector 141 DatabaseNetwork.user[49] WriteAccesses ETV
vector 142 DatabaseNetwork.user[10] WaitTime ETV
vector 143 DatabaseNetwork.user[31] WaitTime ETV
vector 144 DatabaseNetwork.user[48] WriteAccesses ETV
vector 145 DatabaseNetwork.user[19] WaitTime ETV
vector 146 DatabaseNetwork.user[55] WriteAccesses ETV
vector 147 DatabaseNetwork.user[47] WaitTime ETV
vector 148 DatabaseNetwork.user[36] ReadAccesses ETV
vector 149 DatabaseNetwork.user[2] WaitTime ETV
vector 150 DatabaseNetwork.user[19] ReadAccesses ETV
vector 151 DatabaseNetwork.user[46] WriteAccesses ETV
vector 152 DatabaseNetwork.user[20] ReadAccesses ETV
vector 153 DatabaseNetwork.user[33] WriteAccesses ETV
vector 154 DatabaseNetwork.user[42] ReadAccesses ETV
vector 155 DatabaseNetwork.user[43] ReadAccesses ETV
vector 156 DatabaseNetwork.user[21] ReadAccesses ETV
vector 157 DatabaseNetwork.user[36] WaitTime ETV
vector 158 DatabaseNetwork.user[49] WaitTime ETV
vector 159 DatabaseNetwork.user[34] ReadAccesses ETV
vector 160 DatabaseNetwork.user[27] WriteAccesses ETV
vector 161 DatabaseNetwork.user[46] ReadAccesses ETV
vector 162 DatabaseNetwork.user[47] WriteAccesses ETV
vector 163 DatabaseNetwork.user[42] WriteAccesses ETV
vector 164 DatabaseNetwork.user[42] WaitTime ETV
vector 165 DatabaseNetwork.user[3] ReadAccesses ETV
vector 166 DatabaseNetwork.user[43] WaitTime ETV
vector 167 DatabaseNetwork.user[55] WaitTime ETV
vector 168 DatabaseNetwork.user[7] ReadAccesses ETV
vector 169 DatabaseNetwork.user[1] WaitTime ETV
vector 170 DatabaseNetwork.user[20] WaitTime ETV
vector 171 DatabaseNetwork.user[58] ReadAccesses ETV
vector 172 DatabaseNetwork.user[5] ReadAccesses ETV
vector 173 DatabaseNetwork.user[46] WaitTime ETV
vector 174 DatabaseNetwork.user[1] ReadAccesses ETV
vector 175 DatabaseNetwork.user[38] ReadAccesses ETV
vector 176 DatabaseNetwork.user[39] ReadAccesses ETV
vector 177 DatabaseNetwork.user[21] WaitTime ETV
vector 178 DatabaseNetwork.user[50] WriteAccesses ETV
vector 179 DatabaseNetwork.user[34] WaitTime ETV
vector 180 DatabaseNetwork.user[31] WriteAccesses ETV
vector 181 DatabaseNetwork.user[5] WaitTime ETV
vector 182 DatabaseNetwork.user[14] ReadAccesses ETV
vector 183 DatabaseNetwork.user[38] WaitTime ETV
vector 184 DatabaseNetwork.user[7] WaitTime ETV
vector 185 DatabaseNetwork.user[27] WaitTime ETV
vector 186 DatabaseNetwork.user[3] WaitTime ETV
vector 187 DatabaseNetwork.user[3] WriteAccesses ETV
vector 188 DatabaseNetwork.user[57] ReadAccesses ETV
vector 189 DatabaseNetwork.user[14] WaitTime ETV
vector 190 DatabaseNetwork.user[26] ReadAccesses ETV
vector 191 DatabaseNetwork.user[39] WaitTime ETV
vector 192 DatabaseNetwork.user[36] WriteAccesses ETV
vector 193 DatabaseNetwork.user[10] WriteAccesses ETV
vector 194 DatabaseNetwork.user[32] WriteAccesses ETV
vector 195 DatabaseNetwork.user[54] ReadAccesses ETV
vector 196 DatabaseNetwork.user[49] ReadAccesses ETV
vector 197 DatabaseNetwork.user[27] ReadAccesses ETV
vector 198 DatabaseNetwork.user[26] WaitTime ETV
vector 199 DatabaseNetwork.user[5] WriteAccesses ETV
vector 200 DatabaseNetwork.user[54] WaitTime ETV
vector 201 DatabaseNetwork.user[35] WriteAccesses ETV
vector 202 DatabaseNetwork.user[35] ReadAccesses ETV
vector 203 DatabaseNetwork.user[16] ReadAccesses ETV
vector 204 DatabaseNetwork.user[4] WriteAccesses ETV
vector 205 DatabaseNetwork.user[35] WaitTime ETV
vector 206 DatabaseNetwork.user[13] ReadAccesses ETV
vector 207 DatabaseNetwork.user[16] WaitTime ETV
vector 208 DatabaseNetwork.user[2] WriteAccesses ETV
vector 209 DatabaseNetwork.user[53] WriteAccesses ETV
vector 210 DatabaseNetwork.user[55] ReadAccesses ETV
vector 211 DatabaseNetwork.user[43] WriteAccesses ETV
vector 212 DatabaseNetwork.user[40] ReadAccesses ETV
vector 213 DatabaseNetwork.user[45] WriteAccesses ETV
vector 214 DatabaseNetwork.user[40] WaitTime ETV
vector 215 DatabaseNetwork.user[34] WriteAccesses ETV
vector 216 DatabaseNetwork.user[8] ReadAccesses ETV
vector 217 DatabaseNetwork.user[20] WriteAccesses ETV
vector 218 DatabaseNetwork.user[17] WriteAccesses ETV
vector 219 DatabaseNetwork.user[24] WriteAccesses ETV
vector 220 DatabaseNetwork.user[18] WriteAccesses ETV
vector 221 DatabaseNetwork.user[21] WriteAccesses ETV
vector 222 DatabaseNetwork.user[12] WriteAccesses ETV
vector 223 DatabaseNetwork.user[6] WriteAccesses ETV
vector 224 DatabaseNetwork.user[22] WriteAccesses ETV
vector 225 DatabaseNetwork.user[14] WriteAccesses ETV
vector 226 DatabaseNetwork.user[39] WriteAccesses ETV
vector 227 DatabaseNetwork.user[40] WriteAccesses ETV
vector 228 DatabaseNetwork.user[25] WriteAccesses ETV
vector 229 DatabaseNetwork.user[38] WriteAccesses ETV
vector 230 DatabaseNetwork.user[0] WriteAccesses ETV
vector 231 DatabaseNetwork.user[16] WriteAccesses ETV
vector 232 DatabaseNetwork.user[7] WriteAccesses ETV
vector 233 DatabaseNetwork.user[29] WriteAccesses ETV
vector 234 DatabaseNetwork.user[26] WriteAccesses ETV
vector 235 DatabaseNetwork.user[15] WriteAccesses ETV
vector 236 DatabaseNetwork.user[41] WriteAccesses ETV
vector 237 DatabaseNetwork.user[30] WriteAccesses ETV
vector 238 DatabaseNetwork.user[51] WriteAccesses ETV
vector 239 DatabaseNetwork.user[54] WriteAccesses ETV
0	0	0	1.5917490091316
0	129	1.591749009132	2.8220488185888
0	503	4.413797827721	1.331684973274
0	655	5.745482800995	0.93621290646967
0	805	6.681695707465	0.18101494029658
0	837	6.862710647762	0.75012388623756
0	931	7.612834534	1.6209862943643
0	1123	9.233820828364	0.059063622327922
0	1137	9.292884450692	3.2867064704117
0	1529	12.579590921104	1.7334821413328
0	1699	14.313073062437	2.0416648381053
0	1957	16.354737900542	1.7264970885297
0	2155	18.081234989072	0.020229351249236
0	2163	18.101464340321	1.4682776326649
0	2321	19.569741972986	2.1066712270822
0	2637	21.676413200068	0.19897168424522
0	2661	21.875384884313	0.29963118799774
0	2701	22.175016072311	9.0255706318155
0	3643	31.200586704126	2.917435674066
0	4005	34.118022378192	0.12694195186481
0	4015	34.244964330057	1.4083071197437
0	4173	35.653271449801	5.5139708930318
0	4849	41.167242342833	1.5018997552896
0	5015	42.669142098123	2.3253533304157
0	5281	44.994495428539	2.6023537149011
0	5569	47.59684914344	0.33046216732572
0	5601	47.927311310766	4.2172338707187
0	6061	52.144545181485	3.9144464911808
0	6531	56.058991672666	5.6315136961289
0	7173	61.690505368795	1.7859918188798
0	7355	63.476497187675	6.2815807955088
0	8059	69.758077983184	4.5700561521075
0	8641	74.328134135291	0.80200961359817
0	8739	75.130143748889	8.5906095819455
0	9759	83.720753330834	0.031662004919382
0	9763	83.752415335753	3.6205961641089
0	10223	87.373011499862	3.2174480867035
0	10623	90.590459586565	0.44326117990528
0	10685	91.03372076647	0.92659446299928
0	10813	91.960315229469	3.0167041222549
0	11131	94.977019351724	2.3536338651221
0	11359	97.330653216846	6.7758210010543
0	12013	104.1064742179	2.4515565548625
0	12269	106.558030772762	0.58019907130962
0	12335	107.138229844072	2.8774410268987
0	12627	110.015670870971	0.38195629129621
0	12677	110.397627162267	0.15013936484739
0	12707	110.547766527114	0.54879499433165
0	12789	111.096561521446	1.31762574113
0	12933	112.414187262576	1.4984442220738
0	13141	113.91263148465	0.90534304275632
0	13273	114.817974527406	0.17843751116759
0	13301	114.996412038574	1.6600297812295
0	13501	116.656441819804	4.953096796436
0	14091	121.60953861624	2.0243220870174
0	14345	123.633860703257	0.79036671942541
0	14485	124.424227422682	1.9116808504513
0	14755	126.335908273133	0.62693492493822
0	14847	126.962843198071	0.0041177514348657
0	14849	126.966960949506	0.5113884214901
0	14931	127.478349370996	1.0857754986865
0	15063	128.564124869682	1.5175243938058
0	15239	130.081649263488	0.011965516803976
0	15241	130.093614780292	5.9946408644813
0	16039	136.088255644773	1.1531930394152
0	16161	137.241448684188	3.4863172679686
0	16507	140.727765952157	1.4375233441355
0	16679	142.165289296293	7.1113731372357
0	17513	149.276662433529	1.7637137557078
0	17703	151.040376189237	1.3130398295642
0	17927	152.353416018801	0.20044308454846
0	17951	152.553859103349	2.4246699594512
0	18263	154.9785290628	7.4880083610778
0	19125	162.466537423878	0.40579725046
0	19171	162.872334674338	1.3378180872273
0	19321	164.210152761565	3.2692365183125
0	19727	167.479389279878	5.9523418497414
0	20519	173.431731129619	1.8250405454723
0	20689	175.256771675091	0.25007901356848
0	20717	175.506850688659	0.029701499474292
0	20723	175.536552188133	1.5427117730368
0	20885	177.07926396117	0.26291352242837
0	20923	177.342177483598	0.78493275502359
0	21031	178.127110238622	1.8892753287886
0	21233	180.016385567411	0.20636265812073
0	21257	180.222748225532	0.50116382595041
0	21325	180.723912051482	1.6294649557736
0	21567	182.353377007256	4.289995901032
0	22143	186.643372908288	0.43674014830212
0	22187	187.08011305659	0.18579209508465
0	22217	187.265905151675	2.8513436729874
0	22555	190.117248824662	2.547099412968
0	22849	192.66434823763	4.1031693227922
0	23409	196.767517560422	1.2420632176743
0	23557	198.009580778096	3.5601116795989
0	24017	201.569692457695	1.5532633776184
0	24213	203.122955835313	7.6968279295157
0	25013	210.819783764829	5.1098748015249
0	25583	215.929658566354	0.49078411891344
0	25651	216.420442685267	0.52843506696306
0	25723	216.94887775223	2.6507512111876
0	26023	219.599628963418	0.015201273714465
0	26027	219.614830237132	0.32658798781953
0	26061	219.941418224952	5.4510738012584
0	26673	225.39249202621	2.9919529083781
0	26971	228.384444934588	5.9568855055312
0	27671	234.341330440119	3.3227950832169
0	28095	237.664125523336	3.0000512782255
0	28465	240.664176801561	5.089534380613
0	29021	245.753711182174	1.7241902493627
0	29193	247.477901431537	8.9386541608527
0	30319	256.41655559239	0.66932177023856
0	30417	257.085877362629	2.3414449420018
0	30791	259.427322304631	1.3527076700631
0	30935	260.780029974694	1.6991828450547
0	31139	262.479212819749	2.1410304000914
0	31399	264.62024321984	4.6904018692761
0	31979	269.310645089116	1.1388455339121
0	32111	270.449490623028	0.012208191983393
0	32113	270.461698815011	0.44977065346824
0	32169	270.911469468479	0.064704686262003
0	32187	270.976174154741	0.50406547927013
0	32259	271.480239634011	1.4375507877949
0	32525	272.917790421806	0.14256391172653
0	32543	273.060354333533	0.71073590302755
0	32645	273.771090236561	4.2282281414064
0	33167	277.999318377967	0.091412593292506
0	33177	278.09073097126	0.17229581765616
0	33203	278.263026788916	3.2538694111322
0	33667	281.516896200048	4.0006777781422
0	34109	285.51757397819	0.22961137701047
0	34133	285.7471853552	0.35199077210195
0	34177	286.099176127302	5.3993617985993
0	34823	291.498537925901	1.0272004428594
0	34949	292.52573836876	4.887439202875
0	35511	297.413177571635	3.7532593638752
0	35891	301.16643693551	3.2473041627299
0	36273	304.41374109824	0.87925630523736
0	36401	305.292997403477	0.96637660756331
0	36513	306.25937401104	2.0249847792703
0	36727	308.28435879031	0.84019040492449
0	36821	309.124549195234	3.8047064052685
0	37293	312.929255600502	3.6845335781598
0	37709	316.613789178662	1.6823277349599
0	37931	318.296116913622	1.3486441572833
0	38129	319.644761070905	0.020553569195589
0	38135	319.665314640101	4.7247179888442
0	38707	324.390032628945	0.11043431625891
0	38723	324.500466945204	0.14519754735249
0	38755	324.645664492556	4.1504911655307
0	39259	328.796155658087	1.0307476014945
0	39363	329.826903259581	1.3185394333993
0	39475	331.14544269298	3.3377064156654
0	39931	334.483149108645	1.2938746822699
0	40087	335.777023790915	0.42674892259603
0	40137	336.203772713511	0.81116798489536
0	40247	337.014940698406	0.32391102231254
0	40271	337.338851720719	3.3773901627873
0	40687	340.716241883506	0.25323271698068
0	40715	340.969474600487	0.74166177002698
0	40795	341.711136370514	0.36614458104933
0	40839	342.077280951563	0.35945427428724
0	40875	342.43673522585	2.4203921514791
0	41107	344.857127377329	1.1347650982381
0	41225	345.991892475567	0.04065529320021
0	41231	346.032547768767	2.5823831073181
0	41539	348.614930876085	1.3578914977996
0	41709	349.972822373885	0.24307826231876
0	41731	350.215900636204	1.7945025863327
0	41945	352.010403222537	0.8441379880628
0	42061	352.8545412106	6.9940824970868
0	42859	359.848623707687	0.47484228571195
0	42907	360.323465993399	0.55989696742559
0	42969	360.883362960825	1.1315524944168
0	43127	362.014915455242	1.5043005086083
0	43329	363.51921596385	0.87956586999092
0	43431	364.398781833841	0.59367093595983
0	43503	364.992452769801	1.4600607590556
0	43657	366.452513528857	0.50081009301592
0	43717	366.953323621873	1.3755752362519
0	43883	368.328898858125	1.3396123500394
0	44043	369.668511208164	2.674493192657
0	44379	372.343004400821	3.1283017519577
0	44785	375.471306152779	2.0959966631616
0	45027	377.567302815941	0.86552056713126
0	45139	378.432823383072	0.13307395555229
0	45153	378.565897338624	1.0999703866033
0	45265	379.665867725227	2.7623300556049
0	45597	382.428197780832	2.0900660842945
0	45867	384.518263865127	2.921101261478
0	46243	387.439365126605	0.99884882609248
0	46343	388.438213952697	3.3566534045974
0	46655	391.794867357294	3.1029178821672
0	47003	394.897785239461	0.50594237208407
0	47067	395.403727611545	0.15771946970753
0	47085	395.561447081253	2.1315453033256
0	47349	397.692992384579	0.96502084740943
0	47471	398.658013231988	0.57946752181868
0	47531	399.237480753807	4.5610188162986
0	48037	403.798499570106	2.5966375903975
0	48343	406.395137160504	1.698233367328
0	48563	408.093370527832	2.0534830904421
0	48827	410.146853618274	3.0343008629247
0	49171	413.181154481199	0.0024087297094687
0	49173	413.183563210908	1.419136280039
0	49349	414.602699490947	2.3577087613149
0	49615	416.960408252262	3.8414368404346
0	50037	420.801845092697	5.2315295844586
0	50699	426.033374677156	2.9537450103167
0	51113	428.987119687473	3.648354643614
0	51567	432.635474331087	0.2499737454489
0	51603	432.885448076536	3.4710978146513
0	52041	436.356545891187	0.25673168031818
0	52075	436.613277571505	1.2516176462995
0	52209	437.864895217805	5.1960625022808
0	52881	443.060957720086	2.7303834585248
0	53215	445.791341178611	0.45341412953122
0	53261	446.244755308142	0.051244865168261
0	53275	446.29600017331	1.2004297663071
0	53415	447.496429939617	1.5840576962356
0	53575	449.080487635853	0.45837932404916
0	53621	449.538866959902	0.007296338413285
0	53625	449.546163298315	0.99005685944398
0	53745	450.536220157759	2.9952839749596
0	54133	453.531504132719	1.6712489338692
0	54315	455.202753066588	0.10766262941174
0	54337	455.310415696	3.714169915149
0	54819	459.024585611149	3.3356206506112
0	55267	462.36020626176	0.66008419786536
0	55351	463.020290459625	3.1008644563127
0	55697	466.121154915938	0.59246138968686
0	55763	466.713616305625	0.37475328856929
0	55823	467.088369594194	0.88842374325475
0	55955	467.976793337449	2.3454669612783
0	56315	470.322260298727	0.72351992390757
0	56407	471.045780222635	0.041794558821258
0	56417	471.087574781456	0.043520925895331
0	56425	471.131095707351	0.60222658071316
0	56505	471.733322288064	0.54477144707742
0	56589	472.278093735141	0.38179079814166
0	56629	472.659884533283	1.8199121945676
0	56839	474.479796727851	1.0712050573334
0	56963	475.551001785184	3.2838672328747
0	57355	478.834869018059	0.45075226503162
0	57417	479.285621283091	2.1740893185712
0	57709	481.459710601662	0.87828852407288
0	57857	482.337999125735	0.48212104854759
0	57933	482.820120174283	1.5613345348934
0	58115	484.381454709176	3.310781381933
0	58581	487.692236091109	1.2972772646579
0	58747	488.989513355767	1.2378477723771
0	58881	490.227361128144	0.036275881129973
0	58883	490.263637009274	2.2164156859368
0	59149	492.480052695211	2.4510368389758
0	59539	494.931089534187	6.0817513980228
0	60369	501.01284093221	3.6339533060284
0	60839	504.646794238238	0.86511928716481
0	60941	505.511913525403	1.382940130057
0	61085	506.89485365546	0.40614626120878
0	61143	507.300999916669	3.7383372367409
0	61569	511.03933715341	0.93055843939875
0	61673	511.969895592809	1.775075022426
0	61917	513.744970615235	3.7474325880884
0	62363	517.492403203323	2.046632146745
0	62571	519.539035350068	5.6975664768196
0	63145	525.236601826888	1.7210583572948
0	63329	526.957660184183	1.4310965408883
0	63513	528.388756725071	0.13119499544791
0	63529	528.519951720519	1.1008660183258
0	63635	529.620817738845	5.8023593820484
0	64299	535.423177120893	2.01006924188
0	64547	537.433246362773	0.17185782273167
0	64563	537.605104185505	0.68777475660984
0	64639	538.292878942115	7.0302743302505
0	65473	545.323153272365	0.49701016625385
0	65537	545.820163438619	0.49479341798946
0	65601	546.314956856608	1.3440917992927
0	65763	547.659048655901	1.5821120720849
0	65959	549.241160727986	3.1541032838859
0	66241	552.395264011872	0.84616131888682
0	66335	553.241425330759	0.89408394930056
0	66433	554.13550928006	2.4837255095916
0	66679	556.619234789652	0.85014412557863
0	66769	557.469378915231	0.99182170955811
0	66891	558.461200624789	3.4994775115613
0	67341	561.96067813635	0.48834156426022
0	67409	562.44901970061	2.953475922541
0	67807	565.402495623151	0.092547103776165
0	67821	565.495042726927	2.486349893414
0	68153	567.981392620341	0.69859326420507
0	68249	568.679985884546	0.72455502225693
0	68339	569.404540906803	0.32778567180164
0	68371	569.732326578605	0.73674726441366
0	68455	570.469073843019	0.92936158426744
0	68573	571.398435427286	0.59556488409898
0	68665	571.994000311385	1.694834966552
0	68889	573.688835277937	0.42046212238647
0	68963	574.109297400323	0.60508324954485
0	69027	574.714380649868	2.3634192824954
0	69333	577.077799932363	0.81273794472039
0	69433	577.890537877083	0.50266940808828
0	69497	578.393207285171	2.8181765995305
0	69773	581.211383884702	4.7245427267201
0	70293	585.935926611422	0.98127507656197
0	70399	586.917201687984	2.3800696203834
0	70673	589.297271308367	5.3851655940795
0	71433	594.682436902447	0.9669119060297
0	71563	595.649348808477	0.37701642853356
0	71633	596.026365237011	2.9622712902265
0	71961	598.988636527237	6.3889311939691
0	72725	605.377567721206	4.2720378314792
0	73225	609.649605552685	0.40086173624332
0	73289	610.050467288928	0.75014474956267
0	73393	610.800612038491	0.2174963471053
0	73415	611.018108385596	3.9819298406822
0	73967	615.000038226278	3.8504082955452
0	74401	618.850446521823	0.51249807989807
0	74479	619.362944601721	0.30905212815174
0	74523	619.671996729873	3.2385537057846
0	74881	622.910550435658	2.4629307952955
0	75215	625.373481230953	2.9758054948514
0	75607	628.349286725804	0.37838846695466
0	75651	628.727675192759	1.721195642053
0	75829	630.448870834812	6.6446386710358
0	76587	637.093509505848	14.401069737261
0	78247	651.494579243109	4.7539767909301
0	78791	656.248556034039	0.14920783944008
0	78817	656.397763873479	0.2782473875045
0	78851	656.676011260983	2.0922039907026
0	79143	658.768215251686	0.92528857457586
0	79241	659.693503826262	0.1503790222923
0	79267	659.843882848554	0.87476167478625
0	79371	660.71864452334	1.9060195727966
0	79617	662.624664096137	1.5168897224446
0	79827	664.141553818582	2.5222497756441
0	80145	666.663803594226	0.16887763228742
0	80167	666.832681226513	2.0740368741358
0	80431	668.906718100649	0.047347773680738
0	80435	668.95406587433	0.62289034440613
0	80495	669.576956218736	0.22416023865099
0	80519	669.801116457387	5.4390049120068
0	81137	675.240121369394	1.8355681839399
0	81365	677.075689553334	1.5867897037039
0	81559	678.662479257038	6.1595486708887
0	82235	684.822027927927	1.3639300070694
0	82389	686.185957934996	3.3690454628854
0	82823	689.555003397881	3.4681235792965
0	83279	693.023126977177	1.0504185429759
0	83409	694.073545520153	0.37853242991788
0	83449	694.452077950071	1.1232781921972
0	83609	695.575356142268	0.27668723791682
0	83655	695.852043380185	0.39264099880572
0	83699	696.244684378991	0.42940644428861
0	83749	696.67409082328	3.0064461746173
0	84109	699.680536997897	2.8676763624623
0	84469	702.548213360359	3.0475026646099
0	84835	705.595716024969	0.10598208804009
0	84851	705.701698113009	1.0733783283781
0	84951	706.775076441387	1.2363012910402
0	85087	708.011377732427	1.1227114646672
0	85251	709.134089197094	2.3366865374175
0	85509	711.470775734511	0.8687164267171
0	85607	712.339492161228	0.059648721700748
0	85613	712.399140882929	0.23886782142824
0	85643	712.638008704357	0.3760611048542
0	85675	713.014069809211	0.54961366171374
0	85755	713.563683470925	1.1657741559981
0	85865	714.729457626923	1.0322165515006
0	85961	715.761674178424	3.2598556225531
0	86393	719.021529800977	5.6867530870685
0	86977	724.708282888045	0.44087467027304
0	87021	725.149157558318	2.8900579076823
0	87291	728.039215466	4.1412477626425
0	87685	732.180463228642	2.999154268642
0	88027	735.179617497284	4.4029382169744
0	88509	739.582555714258	0.20683969696652
0	88529	739.789395411225	4.4165029061521
0	88995	744.205898317377	1.8656563208091
0	89199	746.071554638186	0.77065930296498
0	89287	746.842213941151	0.042491927315002
0	89297	746.884705868466	2.5656173530364
0	89595	749.450323221502	1.3772539598178
0	89745	750.82757718132	4.1820455085941
0	90169	755.009622689914	1.06245757419
0	90289	756.072080264104	1.1325182817253
0	90431	757.204598545829	2.3851074910193
0	90723	759.589706036848	1.558982710612
0	90911	761.14868874746	1.765721184996
0	91111	762.914409932456	2.7067715658273
0	91439	765.621181498283	1.0046736291865
0	91541	766.625855127469	1.0616474646153
0	91667	767.687502592084	0.36245626648877
0	91705	768.049958858573	8.6137100967219
0	92719	776.663668955295	3.2664998295056
0	93085	779.930168784801	5.1289887194705
0	93627	785.059157504271	4.0703467967121
0	94059	789.129504300983	0.95732438683906
0	94177	790.086828687822	0.47556433830444
0	94235	790.562393026126	2.3915204791467
0	94527	792.953913505273	1.5949591098763
0	94665	794.548872615149	0.70087644710597
0	94793	795.249749062255	0.023800023389016
0	94801	795.273549085644	0.34795842789929
0	94867	795.621507513543	1.1446402699945
0	95049	796.766147783537	1.0994786159492
0	95203	797.865626399486	0.69375476762161
0	95301	798.559381167108	1.5047435055881