file 2932858 1767629703                                         
version 3
run Uniform-18-20260105-17:15:03-28078
attr configname Uniform
attr datetime 20260105-17:15:03
attr datetimef 20260105-171503
attr experiment Uniform
attr inifile omnetpp.ini
attr iterationvars "$N=50, $p=0.8"
attr iterationvarsd N=50/p=0.8
attr iterationvarsf N=50,p=0.8-
attr measurement "$N=50, $p=0.8"
attr network progetto.DatabaseNetwork
attr processid 28078
attr repetition 3
attr replication #3
attr resultdir results
attr runnumber 18
attr seedset 3
itervar N 50
itervar p 0.8
config description "Uniform distribution - varia N e p"
config *.user[*].tableDistribution "\"uniform\""
config *.numUsers 50
config *.user[*].readProbability 0.8
config network progetto.DatabaseNetwork
config sim-time-limit 10000s
config cpu-time-limit 3600s
config repeat 5
config seed-set 3
config output-vector-file "results/Uniform-$N=50, $p=0.8-3.vec"
config output-scalar-file "results/Uniform-$N=50, $p=0.8-3.sca"
config result-dir results
config **.vector-recording true
config **.scalar-recording true
config *.numTables 20
config *.user[*].lambda 0.05
config *.user[*].serviceTime 0.1s

vector 0 DatabaseNetwork.user[0] AccessInterval ETV
vector 1 DatabaseNetwork.user[1] AccessInterval ETV
vector 2 DatabaseNetwork.user[2] AccessInterval ETV
vector 3 DatabaseNetwork.user[3] AccessInterval ETV
vector 4 DatabaseNetwork.user[4] AccessInterval ETV
vector 5 DatabaseNetwork.user[5] AccessInterval ETV
vector 6 DatabaseNetwork.user[6] AccessInterval ETV
vector 7 DatabaseNetwork.user[7] AccessInterval ETV
vector 8 DatabaseNetwork.user[8] AccessInterval ETV
vector 9 DatabaseNetwork.user[9] AccessInterval ETV
vector 10 DatabaseNetwork.user[10] AccessInterval ETV
vector 11 DatabaseNetwork.user[11] AccessInterval ETV
vector 12 DatabaseNetwork.user[12] AccessInterval ETV
vector 13 DatabaseNetwork.user[13] AccessInterval ETV
vector 14 DatabaseNetwork.user[14] AccessInterval ETV
vector 15 DatabaseNetwork.user[15] AccessInterval ETV
vector 16 DatabaseNetwork.user[16] AccessInterval ETV
vector 17 DatabaseNetwork.user[17] AccessInterval ETV
vector 18 DatabaseNetwork.user[18] AccessInterval ETV
vector 19 DatabaseNetwork.user[19] AccessInterval ETV
vector 20 DatabaseNetwork.user[20] AccessInterval ETV
vector 21 DatabaseNetwork.user[21] AccessInterval ETV
vector 22 DatabaseNetwork.user[22] AccessInterval ETV
vector 23 DatabaseNetwork.user[23] AccessInterval ETV
vector 24 DatabaseNetwork.user[24] AccessInterval ETV
vector 25 DatabaseNetwork.user[25] AccessInterval ETV
vector 26 DatabaseNetwork.user[26] AccessInterval ETV
vector 27 DatabaseNetwork.user[27] AccessInterval ETV
vector 28 DatabaseNetwork.user[28] AccessInterval ETV
vector 29 DatabaseNetwork.user[29] AccessInterval ETV
vector 30 DatabaseNetwork.user[30] AccessInterval ETV
vector 31 DatabaseNetwork.user[31] AccessInterval ETV
vector 32 DatabaseNetwork.user[32] AccessInterval ETV
vector 33 DatabaseNetwork.user[33] AccessInterval ETV
vector 34 DatabaseNetwork.user[34] AccessInterval ETV
vector 35 DatabaseNetwork.user[35] AccessInterval ETV
vector 36 DatabaseNetwork.user[36] AccessInterval ETV
vector 37 DatabaseNetwork.user[37] AccessInterval ETV
vector 38 DatabaseNetwork.user[38] AccessInterval ETV
vector 39 DatabaseNetwork.user[39] AccessInterval ETV
vector 40 DatabaseNetwork.user[40] AccessInterval ETV
vector 41 DatabaseNetwork.user[41] AccessInterval ETV
vector 42 DatabaseNetwork.user[42] AccessInterval ETV
vector 43 DatabaseNetwork.user[43] AccessInterval ETV
vector 44 DatabaseNetwork.user[44] AccessInterval ETV
vector 45 DatabaseNetwork.user[45] AccessInterval ETV
vector 46 DatabaseNetwork.user[46] AccessInterval ETV
vector 47 DatabaseNetwork.user[47] AccessInterval ETV
vector 48 DatabaseNetwork.user[48] AccessInterval ETV
vector 49 DatabaseNetwork.user[49] AccessInterval ETV
vector 50 DatabaseNetwork.user[11] WriteAccesses ETV
vector 51 DatabaseNetwork.user[11] WaitTime ETV
vector 52 DatabaseNetwork.user[32] ReadAccesses ETV
vector 53 DatabaseNetwork.user[32] WaitTime ETV
vector 54 DatabaseNetwork.user[20] ReadAccesses ETV
vector 55 DatabaseNetwork.user[20] WaitTime ETV
vector 56 DatabaseNetwork.user[13] WriteAccesses ETV
vector 57 DatabaseNetwork.user[13] WaitTime ETV
vector 58 DatabaseNetwork.user[16] ReadAccesses ETV
vector 59 DatabaseNetwork.user[16] WaitTime ETV
vector 60 DatabaseNetwork.user[1] ReadAccesses ETV
vector 61 DatabaseNetwork.user[1] WaitTime ETV
vector 62 DatabaseNetwork.user[17] ReadAccesses ETV
vector 63 DatabaseNetwork.user[17] WaitTime ETV
vector 64 DatabaseNetwork.user[5] ReadAccesses ETV
vector 65 DatabaseNetwork.user[12] ReadAccesses ETV
vector 66 DatabaseNetwork.user[5] WaitTime ETV
vector 67 DatabaseNetwork.user[12] WaitTime ETV
vector 68 DatabaseNetwork.user[21] ReadAccesses ETV
vector 69 DatabaseNetwork.user[21] WaitTime ETV
vector 70 DatabaseNetwork.user[46] ReadAccesses ETV
vector 71 DatabaseNetwork.user[46] WaitTime ETV
vector 72 DatabaseNetwork.user[14] ReadAccesses ETV
vector 73 DatabaseNetwork.user[14] WaitTime ETV
vector 74 DatabaseNetwork.user[25] WriteAccesses ETV
vector 75 DatabaseNetwork.user[25] WaitTime ETV
vector 76 DatabaseNetwork.user[15] ReadAccesses ETV
vector 77 DatabaseNetwork.user[15] WaitTime ETV
vector 78 DatabaseNetwork.user[36] ReadAccesses ETV
vector 79 DatabaseNetwork.user[36] WaitTime ETV
vector 80 DatabaseNetwork.user[45] WriteAccesses ETV
vector 81 DatabaseNetwork.user[26] ReadAccesses ETV
vector 82 DatabaseNetwork.user[45] WaitTime ETV
vector 83 DatabaseNetwork.user[26] WaitTime ETV
vector 84 DatabaseNetwork.user[40] ReadAccesses ETV
vector 85 DatabaseNetwork.user[40] WaitTime ETV
vector 86 DatabaseNetwork.user[4] ReadAccesses ETV
vector 87 DatabaseNetwork.user[4] WaitTime ETV
vector 88 DatabaseNetwork.user[41] WriteAccesses ETV
vector 89 DatabaseNetwork.user[41] WaitTime ETV
vector 90 DatabaseNetwork.user[11] ReadAccesses ETV
vector 91 DatabaseNetwork.user[45] ReadAccesses ETV
vector 92 DatabaseNetwork.user[27] ReadAccesses ETV
vector 93 DatabaseNetwork.user[27] WaitTime ETV
vector 94 DatabaseNetwork.user[37] ReadAccesses ETV
vector 95 DatabaseNetwork.user[37] WaitTime ETV
vector 96 DatabaseNetwork.user[38] ReadAccesses ETV
vector 97 DatabaseNetwork.user[38] WaitTime ETV
vector 98 DatabaseNetwork.user[25] ReadAccesses ETV
vector 99 DatabaseNetwork.user[9] ReadAccesses ETV
vector 100 DatabaseNetwork.user[9] WaitTime ETV
vector 101 DatabaseNetwork.user[44] ReadAccesses ETV
vector 102 DatabaseNetwork.user[18] ReadAccesses ETV
vector 103 DatabaseNetwork.user[44] WaitTime ETV
vector 104 DatabaseNetwork.user[18] WaitTime ETV
vector 105 DatabaseNetwork.user[23] ReadAccesses ETV
vector 106 DatabaseNetwork.user[47] WriteAccesses ETV
vector 107 DatabaseNetwork.user[23] WaitTime ETV
vector 108 DatabaseNetwork.user[22] WriteAccesses ETV
vector 109 DatabaseNetwork.user[47] WaitTime ETV
vector 110 DatabaseNetwork.user[22] WaitTime ETV
vector 111 DatabaseNetwork.user[29] ReadAccesses ETV
vector 112 DatabaseNetwork.user[29] WaitTime ETV
vector 113 DatabaseNetwork.user[6] ReadAccesses ETV
vector 114 DatabaseNetwork.user[6] WaitTime ETV
vector 115 DatabaseNetwork.user[48] ReadAccesses ETV
vector 116 DatabaseNetwork.user[48] WaitTime ETV
vector 117 DatabaseNetwork.user[0] ReadAccesses ETV
vector 118 DatabaseNetwork.user[39] ReadAccesses ETV
vector 119 DatabaseNetwork.user[0] WaitTime ETV
vector 120 DatabaseNetwork.user[39] WaitTime ETV
vector 121 DatabaseNetwork.user[34] ReadAccesses ETV
vector 122 DatabaseNetwork.user[34] WaitTime ETV
vector 123 DatabaseNetwork.user[7] ReadAccesses ETV
vector 124 DatabaseNetwork.user[7] WaitTime ETV
vector 125 DatabaseNetwork.user[43] WriteAccesses ETV
vector 126 DatabaseNetwork.user[43] WaitTime ETV
vector 127 DatabaseNetwork.user[30] ReadAccesses ETV
vector 128 DatabaseNetwork.user[30] WaitTime ETV
vector 129 DatabaseNetwork.user[16] WriteAccesses ETV
vector 130 DatabaseNetwork.user[24] WriteAccesses ETV
vector 131 DatabaseNetwork.user[24] WaitTime ETV
vector 132 DatabaseNetwork.user[44] WriteAccesses ETV
vector 133 DatabaseNetwork.user[28] ReadAccesses ETV
vector 134 DatabaseNetwork.user[12] WriteAccesses ETV
vector 135 DatabaseNetwork.user[28] WaitTime ETV
vector 136 DatabaseNetwork.user[42] ReadAccesses ETV
vector 137 DatabaseNetwork.user[42] WaitTime ETV
vector 138 DatabaseNetwork.user[19] ReadAccesses ETV
vector 139 DatabaseNetwork.user[19] WaitTime ETV
vector 140 DatabaseNetwork.user[2] WriteAccesses ETV
vector 141 DatabaseNetwork.user[2] WaitTime ETV
vector 142 DatabaseNetwork.user[42] WriteAccesses ETV
vector 143 DatabaseNetwork.user[32] WriteAccesses ETV
vector 144 DatabaseNetwork.user[49] ReadAccesses ETV
vector 145 DatabaseNetwork.user[43] ReadAccesses ETV
vector 146 DatabaseNetwork.user[49] WaitTime ETV
vector 147 DatabaseNetwork.user[33] ReadAccesses ETV
vector 148 DatabaseNetwork.user[33] WaitTime ETV
vector 149 DatabaseNetwork.user[29] WriteAccesses ETV
vector 150 DatabaseNetwork.user[41] ReadAccesses ETV
vector 151 DatabaseNetwork.user[18] WriteAccesses ETV
vector 152 DatabaseNetwork.user[3] ReadAccesses ETV
vector 153 DatabaseNetwork.user[3] WaitTime ETV
vector 154 DatabaseNetwork.user[38] WriteAccesses ETV
vector 155 DatabaseNetwork.user[36] WriteAccesses ETV
vector 156 DatabaseNetwork.user[33] WriteAccesses ETV
vector 157 DatabaseNetwork.user[8] ReadAccesses ETV
vector 158 DatabaseNetwork.user[8] WaitTime ETV
vector 159 DatabaseNetwork.user[10] WriteAccesses ETV
vector 160 DatabaseNetwork.user[10] WaitTime ETV
vector 161 DatabaseNetwork.user[13] ReadAccesses ETV
vector 162 DatabaseNetwork.user[31] ReadAccesses ETV
vector 163 DatabaseNetwork.user[31] WaitTime ETV
vector 164 DatabaseNetwork.user[47] ReadAccesses ETV
vector 165 DatabaseNetwork.user[17] WriteAccesses ETV
vector 166 DatabaseNetwork.user[26] WriteAccesses ETV
vector 167 DatabaseNetwork.user[22] ReadAccesses ETV
vector 168 DatabaseNetwork.user[2] ReadAccesses ETV
vector 169 DatabaseNetwork.user[6] WriteAccesses ETV
vector 170 DatabaseNetwork.user[4] WriteAccesses ETV
vector 171 DatabaseNetwork.user[15] WriteAccesses ETV
vector 172 DatabaseNetwork.user[9] WriteAccesses ETV
vector 173 DatabaseNetwork.user[35] ReadAccesses ETV
vector 174 DatabaseNetwork.user[35] WaitTime ETV
vector 175 DatabaseNetwork.user[19] WriteAccesses ETV
vector 176 DatabaseNetwork.user[10] ReadAccesses ETV
vector 177 DatabaseNetwork.user[3] WriteAccesses ETV
vector 178 DatabaseNetwork.user[0] WriteAccesses ETV
vector 179 DatabaseNetwork.user[28] WriteAccesses ETV
vector 180 DatabaseNetwork.user[46] WriteAccesses ETV
vector 181 DatabaseNetwork.user[30] WriteAccesses ETV
vector 182 DatabaseNetwork.user[49] WriteAccesses ETV
vector 183 DatabaseNetwork.user[24] ReadAccesses ETV
vector 184 DatabaseNetwork.user[48] WriteAccesses ETV
vector 185 DatabaseNetwork.user[35] WriteAccesses ETV
vector 186 DatabaseNetwork.user[20] WriteAccesses ETV
vector 187 DatabaseNetwork.user[14] WriteAccesses ETV
vector 188 DatabaseNetwork.user[39] WriteAccesses ETV
vector 189 DatabaseNetwork.user[1] WriteAccesses ETV
vector 190 DatabaseNetwork.user[34] WriteAccesses ETV
vector 191 DatabaseNetwork.user[7] WriteAccesses ETV
vector 192 DatabaseNetwork.user[31] WriteAccesses ETV
vector 193 DatabaseNetwork.user[40] WriteAccesses ETV
vector 194 DatabaseNetwork.user[21] WriteAccesses ETV
vector 195 DatabaseNetwork.user[5] WriteAccesses ETV
vector 196 DatabaseNetwork.user[8] WriteAccesses ETV
vector 197 DatabaseNetwork.user[23] WriteAccesses ETV
vector 198 DatabaseNetwork.user[37] WriteAccesses ETV
vector 199 DatabaseNetwork.user[27] WriteAccesses ETV
0	11494 21347 0 100169 0 9978.424002079603 514 0.0030677929717917 103.75294364299 10022.118622484 379041.027221
1	32841 23608 0 100317 0 9990.551299501584 568 0.034964520105534 106.9439776081 10054.466572488 335102.13713885
2	56449 21276 0 100147 0 9975.908303128792 512 0.082257546330233 118.14223008553 10011.218943426 379405.90837466
3	77725 19789 0 100279 0 9987.821659687104 476 0.026305935021049 146.82123172088 10002.810758362 398979.76255835
4	97514 20411 0 100073 0 9966.960801306303 492 0.044777698161259 118.2756324145 10009.365497627 391009.09082575
5	117925 22572 0 100321 0 9990.916914949482 543 0.0061460201372557 140.86468137091 10012.635350823 384480.91653024
6	140497 22160 0 100131 0 9974.268061626996 533 0.018621450604241 115.53481678747 10054.634262393 383419.05482835
7	162657 20761 0 100269 0 9987.496036641588 499 0.045311494481141 130.73676339269 10009.104684602 430428.83666075
8	183418 20837 0 100401 0 9996.552353076716 501 0.054746355053547 93.137408234436 10016.377427786 371386.77443776
9	204255 20090 0 100177 0 9979.124136339809 483 0.055127837450939 166.22247997431 10053.254829285 463638.13562934
10	224345 21819 0 100377 0 9995.394305074971 512 0.032944025049189 146.54281736201 10006.942355029 398208.05020261
11	246164 22520 0 100253 0 9986.875518680496 529 0.00025057856504704 113.16803339516 10013.492937838 373908.19845382
12	268684 20920 0 100349 0 9992.752504850689 492 0.03217533225003 120.99486229913 10000.807109552 400805.14524
13	289604 21853 0 99925 0 9952.474118418924 513 0.050667435208287 129.97706881226 10002.023232638 396019.48091897
14	311457 22185 0 100369 0 9995.25602560375 521 0.17378340016634 81.701649557159 10002.567794875 349201.21883018
15	333642 20817 0 100139 0 9975.066630405147 489 0.058554202209419 181.6943414051 10029.426530155 452994.01031215
16	354459 20829 0 99737 0 9934.414077403482 489 0.16677937163599 114.20617933268 10021.486567712 424275.0049792
17	375288 20955 0 100289 0 9988.629856860441 492 0.042157302490277 127.93612290512 10004.425135467 409740.37168073
18	396243 23036 0 100387 0 9995.616051936044 541 0.013694057936636 142.43677202105 10013.619953376 401025.30533688
19	419279 20994 0 100045 0 9963.812020912475 493 0.098001194292055 127.78509307249 10005.668269168 406080.49004643
20	440273 21494 0 100313 0 9990.41245513126 505 0.0048824538047472 123.4242665188 10009.195933099 387065.54577757
21	461767 21417 0 100157 0 9977.140273865745 503 0.002484862450249 113.78693425147 10033.92760228 395722.67941398
22	483184 20652 0 100333 0 9991.689494887401 485 0.065808604363042 116.95465708922 10016.563452295 403263.65354323
23	503836 20583 0 100293 0 9989.028568767314 483 0.03471060479247 119.50797974796 10015.170730592 394355.38629972
24	524419 20721 0 100329 0 9991.456795076104 486 0.0060110677396255 135.32706004005 10006.807247745 397197.02134321
25	545140 20440 0 100255 0 9986.889553370553 480 0.016701133296684 137.36011817317 10016.298694723 430687.23681987
26	565580 21224 0 100405 0 9996.897578618646 499 0.023153894906366 132.07285610907 10050.314082881 395947.72941358
27	586804 22478 0 100171 0 9978.452371174738 528 0.12797096186467 103.12293372018 10001.381966384 357154.27309425
28	609282 20175 0 100129 0 9974.261634829137 474 0.021252856127507 160.98298204949 10003.351160625 430454.82475887
29	629457 20597 0 100201 0 9983.197158945434 484 0.072848230845257 121.68980753452 10047.242875252 408927.67941743
30	650054 20716 0 100365 0 9994.61249132187 487 0.090572232763837 140.27623659135 10000.402106575 415084.132316
31	670770 22695 0 100149 0 9975.976783379829 533 0.063161828967718 129.71170347548 10023.220417008 358199.88337661
32	693465 21386 0 99809 0 9942.71430318938 502 0.08302544972363 138.33556143431 10081.049864624 410652.59147338
33	714851 21588 0 100417 0 9998.71415704843 507 0.009578603778767 134.62761487223 10085.368285233 408678.55248156
34	736439 21333 0 100105 0 9969.736507148834 500 0.0015927693787653 115.70240557311 10010.974965805 386407.8718234
35	757772 21091 0 100429 0 9999.349963672471 496 0.0081181934906992 103.49645419965 10004.243895094 366590.89042268
36	778863 20453 0 100385 0 9995.571681906834 481 0.0082058946683894 109.90375896523 10021.469614739 392296.66058025
37	799316 22072 0 100241 0 9986.07943463966 519 0.020119881147941 137.75161133363 10028.412820092 416887.25161732
38	821388 21548 0 100419 0 9998.80055800942 506 0.0013090725988186 124.34164981153 10006.049428876 401183.31886686
39	842936 21035 0 100425 0 9999.019676635682 494 0.04353104657107 138.18968424379 10001.877865612 403986.29857623
40	863971 21005 0 100409 0 9997.150714012254 494 0.0084339027593333 141.89935998717 10021.357180733 427810.49086894
41	884976 21192 0 100357 0 9993.886653145432 498 0.0028574132938234 110.29771487303 10008.569523038 413983.13565629
42	906168 22016 0 99849 0 9946.479271223726 517 0.0059674967368126 115.53214062998 10004.00503028 372945.41426378
43	928184 21971 0 100209 0 9983.495193488761 516 0.063398695444313 121.9172991873 10000.265438453 387581.59737791
44	950155 23101 0 100433 0 9999.997909754898 543 0.0264681338126 162.29201651484 10002.632096663 378469.65287949
45	973256 20386 0 100137 0 9974.990933538389 479 0.026902406500338 112.63440963996 10012.693413365 388006.76743131
46	993642 21097 0 100341 0 9992.276352127676 496 0.044447269071563 119.64478579664 10017.285722843 397255.70896387
47	1014739 22025 0 99873 0 9947.887866385626 517 0.0075351949433343 119.4764666814 10016.062941486 389700.47715816
48	1036764 21368 0 100337 0 9992.034855357268 501 0.0045329579447031 175.70827130538 10001.337266726 399989.41069504
49	1058132 19342 0 100277 0 9987.734741782585 454 0.015340764746038 241.15209767689 10000.548674432 506264.23226318
50	1077474 3241 1 100249 0.378519642865 9986.715419853332 113 1 1 113 113
51	1080715 23267 4 100258 0.478519642865 9986.975518680496 528 0.099999999998545 0.10000000000036 52.799999999998 5.2799999999996
52	1103982 11288 5 99809 0.485482608732 9942.71430318938 394 1 1 394 394
53	1115270 22084 8 99812 0.585482608732 9942.81430318938 501 0.099999999998545 0.17703865016756 50.178604476683 5.0316583007689
54	1137354 11405 9 99645 0.606631994795 9922.654828788184 398 1 1 398 398
55	1148759 22231 12 100316 0.706631994795 9990.51245513126 504 0.099999999998545 0.19877186076303 50.726986028297 5.1299343664653
56	1170990 2919 13 99277 0.829584574702 9882.074661883835 102 1 1 102 102
57	1173909 22561 16 99928 0.929584574702 9952.574118418924 512 0.099999999998545 0.10186555688506 51.201865556894 5.1203765916813
58	1196470 10634 17 99737 1.05677835357 9934.414077403482 371 1 1 371 371
59	1207104 21469 20 99742 1.15677835357 9934.514077403482 488 0.099999999998545 0.12042404192744 48.837759400732 4.8882695362992
60	1228573 13351 21 100317 1.467008759288 9990.551299501584 466 1 1 466 466
61	1241924 24954 24 100320 1.567008759288 9990.651299501584 567 0.099999999998545 0.13452264808257 56.747755717307 5.6809180708135
62	1266878 11329 25 100289 1.964421148736 9988.629856860441 395 1 1 395 395
63	1278207 21627 28 100292 2.064421148736 9988.729856860441 491 0.099999999998545 0.1453335590877 49.14533355909 4.9211218433976
64	1299834 12316 29 100159 2.586885229816 9977.235851177378 430 1 1 430 430
65	1312150 11184 31 100323 2.684010980209 9990.927614577879 390 1 1 390 390
66	1323334 23861 34 100326 2.686885229816 9991.016914949482 542 0.099999999998545 0.18606942985934 54.291494413336 5.4457362598691
67	1347195 21583 36 100352 2.784010980209 9992.852504850689 491 0.099999999998545 0.11891646407639 49.153404219272 4.9214879567888
68	1368778 11269 39 100157 3.141736494925 9977.140273865745 393 1 1 393 393
69	1380047 22135 44 100162 3.241736494925 9977.240273865745 502 0.099999999998545 0.13152140143302 50.231521401442 5.0272978790367
70	1402182 11102 45 100341 3.412628840718 9992.276352127676 388 1 1 388 388
71	1413284 21792 48 100344 3.512628840718 9992.376352127676 495 0.099999999998545 0.15134780189055 49.607410996336 4.9750984333351
72	1435076 11768 49 100369 4.644767649377 9995.25602560375 410 1 1 410 410
73	1446844 22933 52 100374 4.744767649377 9995.35602560375 520 0.099999999998545 0.10000000000036 51.999999999995 5.199999999999
74	1469777 2957 53 100033 4.856137582298 9962.05969607918 103 1 1 103 103
75	1472734 21107 56 100260 4.956137582298 9986.989553370553 479 0.099999999998545 0.10000000000036 47.900000000001 4.7900000000002
76	1493841 11061 57 100139 5.697408622634 9975.066630405147 386 1 1 386 386
77	1504902 21470 60 100144 5.797408622634 9975.166630405147 488 0.099999999998545 0.186747051876 48.963811568997 4.9262263046082
78	1526372 11339 61 100385 6.001907866846 9995.571681906834 396 1 1 396 396
79	1537711 21091 64 100390 6.101907866846 9995.671681906834 480 0.099999999998545 0.13019529020039 48.055280268956 4.8125970655002
80	1558802 2526 65 99805 6.429468674703 9942.427637720014 88 1 1 88 88
81	1561328 11833 67 100405 6.528105529747 9996.897578618646 413 1 1 413 413
82	1573161 21069 70 100142 6.529468674703 9975.090933538389 478 0.099999999998545 0.19192970551376 47.945275837827 4.8203520481552
83	1594230 21902 72 100408 6.628105529747 9996.997578618646 498 0.099999999998545 0.17057220942752 49.945789006638 5.0170301378186
84	1616132 11298 73 100361 6.668240890524 9994.449022797123 395 1 1 395 395
85	1627430 21677 76 100412 6.768240890524 9997.250714012254 493 0.099999999998545 0.10000000000036 49.30000000001 4.9300000000019
86	1649107 11199 77 100073 6.875308165935 9966.960801306303 392 1 1 392 392
87	1660306 21540 80 100076 6.975308165935 9967.060801306303 491 0.099999999998545 0.18756598085201 49.187565980854 4.9351809971734
88	1681846 3223 83 99707 7.316061781284 9928.805261302447 113 1 1 113 113
89	1685069 21853 88 100360 7.416061781284 9993.986653145432 497 0.099999999998545 0.15814534264518 49.782798360165 4.9904156837818
90	1706922 11883 91 100253 7.694665172808 9986.875518680496 415 1 1 415 415
91	1718805 11177 97 100137 8.254881755142 9974.990933538389 390 1 1 390 390
92	1729982 11827 101 99753 8.736176800439 9935.204628338293 413 1 1 413 413
93	1741809 23229 104 100176 8.836176800439 9978.552371174738 527 0.099999999998545 0.15951516212772 52.844531819818 5.3064083530444
94	1765038 12138 117 100241 10.295355755508 9986.07943463966 424 1 1 424 424
95	1777176 22803 120 100244 10.395355755508 9986.17943463966 518 0.099999999998545 0.1204594258561 51.82045942584 5.1845104732744
96	1799979 11276 129 100419 10.726328631756 9998.80055800942 393 1 1 393 393
97	1811255 22249 132 100424 10.826328631756 9998.90055800942 505 0.099999999998545 0.19786376925799 50.819815727179 5.138972280377
98	1833504 10781 133 100255 11.370117379695 9986.889553370553 376 1 1 376 376
99	1844285 11143 137 99905 11.491713496228 9950.615021042497 388 1 1 388 388
100	1855428 21767 140 100180 11.591713496228 9979.224136339809 482 0.099999999998545 0.18304380782229 48.283043807815 4.8435050355806
101	1877195 12895 141 100433 11.612580851988 9999.997909754898 436 1 1 436 436
102	1890090 12857 143 100387 11.625313641091 9995.616051936044 433 1 1 433 433
103	1902947 24293 148 100376 11.712580851988 9995.372661979229 541 0.099999999998545 0.108601332641 54.11189738529 5.4124643239443
104	1927240 24336 150 100392 11.725313641091 9995.716051936044 540 0.099999999998545 0.14366081998833 54.053056632414 5.4126058749757
105	1951576 11065 153 100233 12.072430324157 9984.864269040811 372 1 1 372 372
106	1962641 3119 155 98529 12.125000917022 9808.162037588077 105 1 1 105 105
107	1965760 21754 160 100298 12.172430324157 9989.128568767314 482 0.099999999998545 0.17537647883 48.384068105813 4.8682384709881
108	1987514 3257 161 99649 12.206777311901 9922.827224783222 110 1 1 110 110
109	1990771 23284 164 99876 12.225000917022 9947.987866385626 516 0.099999999998545 0.18060797703583 51.77980139044 5.2082677324652
110	2014055 21811 168 100336 12.306777311901 9991.789494887401 484 0.099999999998545 0.17778770394307 48.488825994918 4.8639379697359
111	2035866 11319 173 100201 13.570528575678 9983.197158945434 381 1 1 381 381
112	2047185 21769 176 100206 13.670528575678 9983.297158945434 483 0.099999999998545 0.17160867222174 48.536400873152 4.8917593033361
113	2068954 12573 181 100131 14.300805947153 9974.268061626996 424 1 1 424 424
114	2081527 23960 184 100136 14.400805947153 9974.368061626996 532 0.099999999998545 0.10000000000036 53.199999999995 5.3199999999991
115	2105487 11448 193 100211 15.733735131438 9983.562998308175 385 1 1 385 385
116	2116935 22574 196 100340 15.833735131438 9992.134855357268 500 0.099999999998545 0.17858137588803 50.204749834728 5.0538537584775
117	2139509 12351 197 100169 16.005647817852 9978.424002079603 417 1 1 417 417
118	2151860 11749 199 100425 16.093732643296 9999.019676635682 396 1 1 396 396
119	2163609 23111 202 100174 16.105647817852 9978.524002079603 513 0.099999999998545 0.1414402115779 51.355673259067 5.1430545225897
120	2186720 22235 204 100428 16.193732643296 9999.119676635682 493 0.099999999998545 0.16015712757508 49.410946483638 4.9573654666029
121	2208955 12191 205 100105 16.367591712189 9969.736507148834 410 1 1 410 410
122	2221146 22526 208 100108 16.467591712189 9969.836507148834 499 0.099999999998545 0.19327242453983 50.236570737163 5.0838117272018
123	2243672 12617 209 100269 16.847395664611 9987.496036641588 425 1 1 425 425
124	2256289 22446 212 100274 16.947395664611 9987.596036641588 498 0.099999999998545 0.13880951876695 49.873037625419 4.9972852671159
125	2278735 2875 217 97957 17.66775889018 9749.896783554439 97 1 1 97 97
126	2281610 23236 220 100214 17.76775889018 9983.595193488761 515 0.099999999998545 0.17726420202825 51.608287490957 5.1785896995625
127	2304846 11855 223 100365 17.874095078863 9994.61249132187 400 1 1 400 400
128	2316701 21891 228 100368 17.974095078863 9994.71249132187 486 0.099999999998545 0.1380366662197 48.667938342276 4.8759285666639
129	2338592 3475 233 97769 19.170527536671 9730.247644818957 117 1 1 117 117
130	2342067 2971 245 100263 20.947590863274 9987.0483237101 100 1 1 100 100
131	2345038 21882 250 100332 21.047590863274 9991.556795076104 485 0.099999999998545 0.19255586702911 48.760845675662 4.9201858370457
132	2366920 3152 251 100261 21.063604682345 9987.025140459726 106 1 1 106 106
133	2370072 11071 267 100129 22.555976236379 9974.261634829137 373 1 1 373 373
134	2381143 2980 269 100349 22.561388342127 9992.752504850689 101 1 1 101 101
135	2384123 21333 274 100134 22.655976236379 9974.361634829137 473 0.099999999998545 0.17041121029615 47.370411210294 4.7490399805941
136	2405456 12262 285 99849 23.627137632438 9946.479271223726 413 1 1 413 413
137	2417718 23266 288 99852 23.727137632438 9946.579271223726 516 0.099999999998545 0.19362737085885 51.890852502457 5.239501919602
138	2440984 11546 289 100045 23.737309924295 9963.812020912475 389 1 1 389 389
139	2452530 22157 292 100048 23.837309924295 9963.912020912475 492 0.099999999998545 0.17121867101559 49.302665526823 4.9465941092064
140	2474687 2482 295 100081 24.630156904837 9967.537636538833 84 1 1 84 84
141	2477169 23046 302 100154 24.730156904837 9976.008303128792 511 0.099999999998545 0.10000000000036 51.100000000002 5.1100000000004
142	2500215 3049 313 99587 25.620922054229 9915.856299263596 103 1 1 103 103
143	2503264 3181 317 98817 25.832400054308 9836.917170394367 107 1 1 107 107
144	2506445 10893 343 100277 28.348704517473 9987.734741782585 367 1 1 367 367
145	2517338 12398 345 100209 28.360800929448 9983.495193488761 418 1 1 418 418
146	2529736 20425 350 100282 28.448704517473 9987.834741782585 453 0.099999999998545 0.10000000000036 45.300000000004 4.5300000000007
147	2550161 12318 353 100417 29.033848991076 9998.71415704843 415 1 1 415 415
148	2562479 22798 356 100422 29.133848991076 9998.81415704843 506 0.099999999998545 0.16432853205788 50.67747416021 5.0798057996183
149	2585277 3024 363 99593 29.336511172926 9916.475011700531 102 1 1 102 102
150	2588301 11391 365 100357 29.37659041774 9993.886653145432 384 1 1 384 384
151	2599692 3172 421 99749 36.189298671294 9934.981865497335 107 1 1 107 107
152	2602864 11272 425 100279 36.645260577018 9987.821659687104 380 1 1 380 380
153	2614136 21393 428 100284 36.745260577018 9987.921659687104 475 0.099999999998545 0.16480753999076 47.684027326838 4.7972536194054
154	2635529 3316 449 98825 40.994560588901 9837.316237682239 112 1 1 112 112
155	2638845 2489 473 98509 43.758992812786 9805.603842576324 84 1 1 84 84
156	2641334 2692 481 99553 44.336806301058 9912.899196221115 91 1 1 91 91
157	2644026 11720 493 100379 44.688616925188 9995.405836364575 395 1 1 395 395
158	2655746 22573 496 100404 44.788616925188 9996.652353076716 500 0.099999999998545 0.18039934336912 50.142840211539 5.0389309587389
159	2678319 3589 505 97233 45.32373084527 9678.005717862783 121 1 1 121 121
160	2681908 23048 508 100382 45.42373084527 9995.494305074971 511 0.099999999998545 0.16466123477767 51.164661234779 5.1271133222387
161	2704956 12176 513 99925 45.736769568882 9952.474118418924 410 1 1 410 410
162	2717132 12373 541 100149 48.906363030484 9975.976783379829 417 1 1 417 417
163	2729505 24017 546 100156 49.006363030484 9976.076783379829 532 0.099999999998545 0.18098073008059 53.353393790745 5.3599476854582
164	2753522 12210 549 99873 49.041271866024 9947.887866385626 411 1 1 411 411
165	2765732 2853 581 100165 54.352199362256 9977.811988459525 96 1 1 96 96
166	2768585 2517 597 99829 54.931824402165 9944.144548211078 85 1 1 85 85
167	2771102 11104 647 100333 61.269184789814 9991.689494887401 374 1 1 374 374
168	2782206 12666 657 100147 61.451727609212 9975.908303128792 427 1 1 427 427
169	2794872 3200 669 98713 62.575303120934 9830.172585659186 108 1 1 108 108
170	2798072 2941 677 99661 63.269426413596 9924.49321290815 99 1 1 99 99
171	2801013 3025 711 100013 67.639089806348 9959.79865099423 102 1 1 102 102
172	2804038 2785 745 100177 72.386538064772 9979.124136339809 94 1 1 94 94
173	2806823 12133 753 100429 72.724427832817 9999.349963672471 409 1 1 409 409
174	2818956 22366 756 100432 72.824427832817 9999.449963672471 495 0.099999999998545 0.18041977105008 49.665687599986 4.9959043411103
175	2841322 3052 757 99901 73.256523473037 9950.48969799056 103 1 1 103 103
176	2844374 11595 845 100377 81.849550123819 9995.394305074971 390 1 1 390 390
177	2855969 2808 909 98701 85.653137388104 9827.918255999756 95 1 1 95 95
178	2858777 2843 911 99297 85.696191057839 9882.552308683059 96 1 1 96 96