version 3
run Uniform-5-20260105-16:25:28-14448
attr configname Uniform
attr datetime 20260105-16:25:28
attr datetimef 20260105-162528
attr experiment Uniform
attr inifile omnetpp.ini
attr iterationvars "$N=50, $p=0.8"
attr iterationvarsd N=50/p=0.8
attr iterationvarsf N=50,p=0.8-
attr measurement "$N=50, $p=0.8"
attr network progetto.DatabaseNetwork
attr processid 14448
attr repetition 0
attr replication #0
attr resultdir results
attr runnumber 5
attr seedset 0
itervar N 50
itervar p 0.8
config description "Uniform distribution - varia N e p"
config *.user[*].tableDistribution "\"uniform\""
config *.numUsers 50
config *.user[*].readProbability 0.8
config network progetto.DatabaseNetwork
config sim-time-limit 10000s
config cpu-time-limit 3600s
config repeat 5
config seed-set 0
config output-vector-file "results/Uniform-$N=50, $p=0.8-0.vec"
config output-scalar-file "results/Uniform-$N=50, $p=0.8-0.sca"
config result-dir results
config **.vector-recording true
config **.scalar-recording true
config *.numTables 20
config *.user[*].lambda 0.05
config *.user[*].serviceTime 0.1s

vector 0 DatabaseNetwork.user[0] AccessInterval ETV
vector 1 DatabaseNetwork.user[1] AccessInterval ETV
vector 2 DatabaseNetwork.user[2] AccessInterval ETV
vector 3 DatabaseNetwork.user[3] AccessInterval ETV
vector 4 DatabaseNetwork.user[4] AccessInterval ETV
vector 5 DatabaseNetwork.user[5] AccessInterval ETV
vector 6 DatabaseNetwork.user[6] AccessInterval ETV
vector 7 DatabaseNetwork.user[7] AccessInterval ETV
vector 8 DatabaseNetwork.user[8] AccessInterval ETV
vector 9 DatabaseNetwork.user[9] AccessInterval ETV
vector 10 DatabaseNetwork.user[10] AccessInterval ETV
vector 11 DatabaseNetwork.user[11] AccessInterval ETV
vector 12 DatabaseNetwork.user[12] AccessInterval ETV
vector 13 DatabaseNetwork.user[13] AccessInterval ETV
vector 14 DatabaseNetwork.user[14] AccessInterval ETV
vector 15 DatabaseNetwork.user[15] AccessInterval ETV
vector 16 DatabaseNetwork.user[16] AccessInterval ETV
vector 17 DatabaseNetwork.user[17] AccessInterval ETV
vector 18 DatabaseNetwork.user[18] AccessInterval ETV
vector 19 DatabaseNetwork.user[19] AccessInterval ETV
vector 20 DatabaseNetwork.user[20] AccessInterval ETV
vector 21 DatabaseNetwork.user[21] AccessInterval ETV
vector 22 DatabaseNetwork.user[22] AccessInterval ETV
vector 23 DatabaseNetwork.user[23] AccessInterval ETV
vector 24 DatabaseNetwork.user[24] AccessInterval ETV
vector 25 DatabaseNetwork.user[25] AccessInterval ETV
vector 26 DatabaseNetwork.user[26] AccessInterval ETV
vector 27 DatabaseNetwork.user[27] AccessInterval ETV
vector 28 DatabaseNetwork.user[28] AccessInterval ETV
vector 29 DatabaseNetwork.user[29] AccessInterval ETV
vector 30 DatabaseNetwork.user[30] AccessInterval ETV
vector 31 DatabaseNetwork.user[31] AccessInterval ETV
vector 32 DatabaseNetwork.user[32] AccessInterval ETV
vector 33 DatabaseNetwork.user[33] AccessInterval ETV
vector 34 DatabaseNetwork.user[34] AccessInterval ETV
vector 35 DatabaseNetwork.user[35] AccessInterval ETV
vector 36 DatabaseNetwork.user[36] AccessInterval ETV
vector 37 DatabaseNetwork.user[37] AccessInterval ETV
vector 38 DatabaseNetwork.user[38] AccessInterval ETV
vector 39 DatabaseNetwork.user[39] AccessInterval ETV
vector 40 DatabaseNetwork.user[40] AccessInterval ETV
vector 41 DatabaseNetwork.user[41] AccessInterval ETV
vector 42 DatabaseNetwork.user[42] AccessInterval ETV
vector 43 DatabaseNetwork.user[43] AccessInterval ETV
vector 44 DatabaseNetwork.user[44] AccessInterval ETV
vector 45 DatabaseNetwork.user[45] AccessInterval ETV
vector 46 DatabaseNetwork.user[46] AccessInterval ETV
vector 47 DatabaseNetwork.user[47] AccessInterval ETV
vector 48 DatabaseNetwork.user[48] AccessInterval ETV
vector 49 DatabaseNetwork.user[49] AccessInterval ETV
vector 50 DatabaseNetwork.user[32] ReadAccesses ETV
vector 51 DatabaseNetwork.user[32] WaitTime ETV
vector 52 DatabaseNetwork.user[15] ReadAccesses ETV
vector 53 DatabaseNetwork.user[15] WaitTime ETV
vector 54 DatabaseNetwork.user[28] ReadAccesses ETV
vector 55 DatabaseNetwork.user[28] WaitTime ETV
vector 56 DatabaseNetwork.user[30] ReadAccesses ETV
vector 57 DatabaseNetwork.user[30] WaitTime ETV
vector 58 DatabaseNetwork.user[48] ReadAccesses ETV
vector 59 DatabaseNetwork.user[48] WaitTime ETV
vector 60 DatabaseNetwork.user[37] ReadAccesses ETV
vector 61 DatabaseNetwork.user[37] WaitTime ETV
vector 62 DatabaseNetwork.user[15] WriteAccesses ETV
vector 63 DatabaseNetwork.user[17] WriteAccesses ETV
vector 64 DatabaseNetwork.user[17] WaitTime ETV
vector 65 DatabaseNetwork.user[13] ReadAccesses ETV
vector 66 DatabaseNetwork.user[13] WaitTime ETV
vector 67 DatabaseNetwork.user[29] ReadAccesses ETV
vector 68 DatabaseNetwork.user[29] WaitTime ETV
vector 69 DatabaseNetwork.user[29] WriteAccesses ETV
vector 70 DatabaseNetwork.user[33] ReadAccesses ETV
vector 71 DatabaseNetwork.user[33] WaitTime ETV
vector 72 DatabaseNetwork.user[18] WriteAccesses ETV
vector 73 DatabaseNetwork.user[11] ReadAccesses ETV
vector 74 DatabaseNetwork.user[18] WaitTime ETV
vector 75 DatabaseNetwork.user[11] WaitTime ETV
vector 76 DatabaseNetwork.user[25] ReadAccesses ETV
vector 77 DatabaseNetwork.user[25] WaitTime ETV
vector 78 DatabaseNetwork.user[8] WriteAccesses ETV
vector 79 DatabaseNetwork.user[8] WaitTime ETV
vector 80 DatabaseNetwork.user[12] ReadAccesses ETV
vector 81 DatabaseNetwork.user[12] WaitTime ETV
vector 82 DatabaseNetwork.user[44] WriteAccesses ETV
vector 83 DatabaseNetwork.user[32] WriteAccesses ETV
vector 84 DatabaseNetwork.user[44] WaitTime ETV
vector 85 DatabaseNetwork.user[41] ReadAccesses ETV
vector 86 DatabaseNetwork.user[41] WaitTime ETV
vector 87 DatabaseNetwork.user[19] ReadAccesses ETV
vector 88 DatabaseNetwork.user[23] ReadAccesses ETV
vector 89 DatabaseNetwork.user[19] WaitTime ETV
vector 90 DatabaseNetwork.user[23] WaitTime ETV
vector 91 DatabaseNetwork.user[33] WriteAccesses ETV
vector 92 DatabaseNetwork.user[45] WriteAccesses ETV
vector 93 DatabaseNetwork.user[45] WaitTime ETV
vector 94 DatabaseNetwork.user[22] ReadAccesses ETV
vector 95 DatabaseNetwork.user[22] WaitTime ETV
vector 96 DatabaseNetwork.user[6] WriteAccesses ETV
vector 97 DatabaseNetwork.user[6] WaitTime ETV
vector 98 DatabaseNetwork.user[0] ReadAccesses ETV
vector 99 DatabaseNetwork.user[0] WaitTime ETV
vector 100 DatabaseNetwork.user[24] ReadAccesses ETV
vector 101 DatabaseNetwork.user[24] WaitTime ETV
vector 102 DatabaseNetwork.user[1] WriteAccesses ETV
vector 103 DatabaseNetwork.user[1] WaitTime ETV
vector 104 DatabaseNetwork.user[4] ReadAccesses ETV
vector 105 DatabaseNetwork.user[4] WaitTime ETV
vector 106 DatabaseNetwork.user[9] ReadAccesses ETV
vector 107 DatabaseNetwork.user[9] WaitTime ETV
vector 108 DatabaseNetwork.user[8] ReadAccesses ETV
vector 109 DatabaseNetwork.user[10] ReadAccesses ETV
vector 110 DatabaseNetwork.user[10] WaitTime ETV
vector 111 DatabaseNetwork.user[45] ReadAccesses ETV
vector 112 DatabaseNetwork.user[31] ReadAccesses ETV
vector 113 DatabaseNetwork.user[31] WaitTime ETV
vector 114 DatabaseNetwork.user[12] WriteAccesses ETV
vector 115 DatabaseNetwork.user[6] ReadAccesses ETV
vector 116 DatabaseNetwork.user[47] WriteAccesses ETV
vector 117 DatabaseNetwork.user[47] WaitTime ETV
vector 118 DatabaseNetwork.user[1] ReadAccesses ETV
vector 119 DatabaseNetwork.user[2] ReadAccesses ETV
vector 120 DatabaseNetwork.user[2] WaitTime ETV
vector 121 DatabaseNetwork.user[49] ReadAccesses ETV
vector 122 DatabaseNetwork.user[49] WaitTime ETV
vector 123 DatabaseNetwork.user[17] ReadAccesses ETV
vector 124 DatabaseNetwork.user[47] ReadAccesses ETV
vector 125 DatabaseNetwork.user[4] WriteAccesses ETV
vector 126 DatabaseNetwork.user[36] WriteAccesses ETV
vector 127 DatabaseNetwork.user[36] WaitTime ETV
vector 128 DatabaseNetwork.user[46] ReadAccesses ETV
vector 129 DatabaseNetwork.user[46] WaitTime ETV
vector 130 DatabaseNetwork.user[18] ReadAccesses ETV
vector 131 DatabaseNetwork.user[20] ReadAccesses ETV
vector 132 DatabaseNetwork.user[20] WaitTime ETV
vector 133 DatabaseNetwork.user[19] WriteAccesses ETV
vector 134 DatabaseNetwork.user[42] ReadAccesses ETV
vector 135 DatabaseNetwork.user[42] WaitTime ETV
vector 136 DatabaseNetwork.user[43] WriteAccesses ETV
vector 137 DatabaseNetwork.user[11] WriteAccesses ETV
vector 138 DatabaseNetwork.user[43] WaitTime ETV
vector 139 DatabaseNetwork.user[25] WriteAccesses ETV
vector 140 DatabaseNetwork.user[21] ReadAccesses ETV
vector 141 DatabaseNetwork.user[21] WaitTime ETV
vector 142 DatabaseNetwork.user[44] ReadAccesses ETV
vector 143 DatabaseNetwork.user[34] ReadAccesses ETV
vector 144 DatabaseNetwork.user[34] WaitTime ETV
vector 145 DatabaseNetwork.user[27] ReadAccesses ETV
vector 146 DatabaseNetwork.user[27] WaitTime ETV
vector 147 DatabaseNetwork.user[34] WriteAccesses ETV
vector 148 DatabaseNetwork.user[3] ReadAccesses ETV
vector 149 DatabaseNetwork.user[3] WaitTime ETV
vector 150 DatabaseNetwork.user[7] ReadAccesses ETV
vector 151 DatabaseNetwork.user[24] WriteAccesses ETV
vector 152 DatabaseNetwork.user[7] WaitTime ETV
vector 153 DatabaseNetwork.user[48] WriteAccesses ETV
vector 154 DatabaseNetwork.user[5] WriteAccesses ETV
vector 155 DatabaseNetwork.user[5] WaitTime ETV
vector 156 DatabaseNetwork.user[38] ReadAccesses ETV
vector 157 DatabaseNetwork.user[39] ReadAccesses ETV
vector 158 DatabaseNetwork.user[38] WaitTime ETV
vector 159 DatabaseNetwork.user[39] WaitTime ETV
vector 160 DatabaseNetwork.user[31] WriteAccesses ETV
vector 161 DatabaseNetwork.user[42] WriteAccesses ETV
vector 162 DatabaseNetwork.user[0] WriteAccesses ETV
vector 163 DatabaseNetwork.user[14] ReadAccesses ETV
vector 164 DatabaseNetwork.user[27] WriteAccesses ETV
vector 165 DatabaseNetwork.user[14] WaitTime ETV
vector 166 DatabaseNetwork.user[5] ReadAccesses ETV
vector 167 DatabaseNetwork.user[14] WriteAccesses ETV
vector 168 DatabaseNetwork.user[26] ReadAccesses ETV
vector 169 DatabaseNetwork.user[26] WaitTime ETV
vector 170 DatabaseNetwork.user[3] WriteAccesses ETV
vector 171 DatabaseNetwork.user[37] WriteAccesses ETV
vector 172 DatabaseNetwork.user[26] WriteAccesses ETV
vector 173 DatabaseNetwork.user[35] ReadAccesses ETV
vector 174 DatabaseNetwork.user[35] WaitTime ETV
vector 175 DatabaseNetwork.user[20] WriteAccesses ETV
vector 176 DatabaseNetwork.user[16] WriteAccesses ETV
vector 177 DatabaseNetwork.user[16] WaitTime ETV
vector 178 DatabaseNetwork.user[30] WriteAccesses ETV
vector 179 DatabaseNetwork.user[43] ReadAccesses ETV
vector 180 DatabaseNetwork.user[16] ReadAccesses ETV
vector 181 DatabaseNetwork.user[36] ReadAccesses ETV
vector 182 DatabaseNetwork.user[10] WriteAccesses ETV
vector 183 DatabaseNetwork.user[40] ReadAccesses ETV
vector 184 DatabaseNetwork.user[40] WaitTime ETV
vector 185 DatabaseNetwork.user[40] WriteAccesses ETV
vector 186 DatabaseNetwork.user[39] WriteAccesses ETV
vector 187 DatabaseNetwork.user[41] WriteAccesses ETV
vector 188 DatabaseNetwork.user[28] WriteAccesses ETV
vector 189 DatabaseNetwork.user[21] WriteAccesses ETV
vector 190 DatabaseNetwork.user[2] WriteAccesses ETV
vector 191 DatabaseNetwork.user[13] WriteAccesses ETV
vector 192 DatabaseNetwork.user[46] WriteAccesses ETV
vector 193 DatabaseNetwork.user[38] WriteAccesses ETV
vector 194 DatabaseNetwork.user[49] WriteAccesses ETV
vector 195 DatabaseNetwork.user[7] WriteAccesses ETV
vector 196 DatabaseNetwork.user[9] WriteAccesses ETV
vector 197 DatabaseNetwork.user[23] WriteAccesses ETV
vector 198 DatabaseNetwork.user[35] WriteAccesses ETV
vector 199 DatabaseNetwork.user[22] WriteAccesses ETV
0	0	0	15.917490091316
0	149	15.917490091316	22.016918201817
0	373	37.934408293133	4.937185375976
0	445	42.871593669109	5.2128025875288
0	493	48.084396256638	13.390811817222
0	609	61.47520807386	64.799259338017
0	1323	126.274467411877	8.6739894080122
0	1425	134.948456819889	12.259345373635
0	1503	147.207802193524	1.6792008006664
0	1517	148.88700299419	1.3687775076646
0	1531	150.255780501855	3.3298038783878
0	1565	153.585584380243	17.334821413328
0	1721	170.920405793571	18.882825041328
0	1929	189.803230834899	30.208096373762
0	2221	220.011327208661	0.65782539608472
0	2229	220.669152604746	124.54864335957
0	3441	345.217795964316	15.835640898159
0	3553	361.053436862475	21.744931381375
0	3757	382.79836824385	8.9218055244
0	3897	391.72017376825	11.307137530624
0	3985	403.027311298874	35.456577438561
0	4365	438.483888737435	2.1558072908904
0	4393	440.639696028325	3.8036853574688
0	4427	444.443381385794	36.989214293365
0	4733	481.432595679159	7.4400603766074
0	4841	488.872656055766	17.591993679308
0	5009	506.464649735074	32.112496640003
0	5319	538.577146375077	26.023537149011
0	5533	564.600683524088	0.35409119375176
0	5545	564.95477471784	11.707326614911
0	5681	576.662101332751	75.135113146275
0	6365	651.797214479026	5.2410812782525
0	6439	657.038295757279	2.4761994606039
0	6467	659.514495217883	50.905250931749
0	6899	710.419746149632	1.2652013115554
0	6913	711.684947461187	12.260079437941
0	7027	723.945026899128	6.3996744545635
0	7097	730.344701353692	7.6434211245483
0	7181	737.98812247824	54.241043157828
0	7679	792.229165636068	12.51685781164
0	7797	804.746023447708	21.35809614596
0	7981	826.104119593668	38.214111464964
0	8401	864.318231058632	6.3501929809736
0	8481	870.668424039606	24.386718895366
0	8709	895.055142934972	6.4286377740282
0	8789	901.483780709	3.3102980844558
0	8801	904.794078793456	2.6636083651153
0	8821	907.457687158571	13.983924107399
0	8975	921.44161126597	3.2654207198737
0	9019	924.707031985844	3.2748463375134
0	9053	927.981878323357	0.76349224145137
0	9075	928.745370564808	55.511614477969
0	9597	984.256985042777	7.2296182499312
0	9683	991.486603292708	10.978990196487
0	9785	1002.465593489195	50.651888928089
0	10315	1053.117482417284	32.824824418195
0	10657	1085.942306835479	16.80156530589
0	10841	1102.743872141369	28.41952632027
0	11065	1131.163398461639	1.4165033245948
0	11077	1132.579901786234	0.91652976013236
0	11089	1133.496431546366	63.686158093277
0	11585	1197.182589639643	6.9183977150129
0	11649	1204.100987354656	6.2194790326435
0	11729	1210.3204663873	17.242458028879
0	11851	1227.562924416179	14.108715240838
0	11977	1241.671639657017	22.899357918897
0	12161	1264.570997575914	58.110694178603
0	12701	1322.681691754517	39.628783154519
0	13129	1362.310474909036	85.234730755132
0	14027	1447.545205664168	5.4621189926738
0	14065	1453.007324656842	8.2769860736447
0	14163	1461.284310730487	65.423336026114
0	14941	1526.707646756601	11.506887267876
0	15061	1538.214534024477	15.153121622226
0	15201	1553.367655646703	33.938321443082
0	15561	1587.305977089785	1.3256944596158
0	15577	1588.631671549401	23.605548994092
0	15841	1612.237220543493	10.76294661759
0	15995	1623.000167161083	23.796339408105
0	16185	1646.796506569188	49.458181518067
0	16631	1696.254688087255	0.89401130059372
0	16641	1697.148699387849	16.48974297855
0	16809	1713.638442366399	0.59810233648163
0	16821	1714.236544702881	35.898016243733
0	17149	1750.134560946614	27.916903640328
0	17399	1778.051464586942	0.035814424929067
0	17401	1778.087279011871	30.056645574392
0	17717	1808.143924586263	1.8446991035543
0	17745	1809.988623689817	30.271023867159
0	18097	1840.259647556976	31.271198883215
0	18411	1871.530846440191	28.018967085065
0	18641	1899.549813525256	7.1786374665138
0	18713	1906.72845099177	16.701499214435
0	18865	1923.429950206205	0.97169614626493
0	18875	1924.40164635247	16.498294473135
0	19081	1940.899940825605	24.990847406451
0	19309	1965.890788232056	26.633735419149
0	19609	1992.524523651205	3.4877030571195
0	19645	1996.012226708325	1.3569902812771
0	19661	1997.369216989602	21.015231254087
0	19851	2018.384448243689	35.148727303265
0	20281	2053.533175546954	0.21878163310433
0	20285	2053.751957180058	48.662234426615
0	20717	2102.414191606673	4.265792629023
0	20749	2106.679984235696	5.0156723392863
0	20801	2111.695656574982	10.621196874439
0	20909	2122.316853449421	32.613314087173
0	21215	2154.930167536594	53.639217905079
0	21825	2208.569385441673	38.527801950779
0	22251	2247.097187392452	28.513436729874
0	22549	2275.610624122326	1.7882001657669
0	22569	2277.398824288093	34.312530925514
0	22897	2311.711355213607	51.194915071408
0	23477	2362.906270285015	41.139903731391
0	23885	2404.046174016406	11.225474787673
0	24037	2415.271648804079	24.598227286722
0	24277	2439.869876090801	26.196181862937
0	24541	2466.066057953738	18.367801937666
0	24689	2484.433859891404	5.8032744907721
0	24733	2490.237134382176	17.23900561691
0	24869	2507.476139999086	42.03877434654
0	25245	2549.514914345626	4.6686431927092
0	25305	2554.183557538335	12.158881717965
0	25377	2566.3424392563	2.4485146087817
0	25397	2568.790953865082	2.7913484072324
0	25411	2571.582302272314	53.579577683273
0	25965	2625.161879955587	124.42489018041
0	27107	2749.586770135996	9.0737593044243
0	27209	2758.66052944042	13.073589721048
0	27329	2771.734119161468	40.418626462309
0	27729	2812.152745623777	29.641318222149
0	28035	2841.794063845926	23.646123446679
0	28297	2865.440187292605	2.0111447257319
0	28345	2867.451332018337	2.8516957389925
0	28377	2870.303027757329	26.429181830708
0	28579	2896.732209588037	6.6597735968489
0	28657	2903.391983184886	41.624849888001
0	29017	2945.016833072887	13.589488167636
0	29149	2958.606321240523	15.266672987046
0	29285	2973.872994227569	13.759451736954
0	29453	2987.632445964523	50.823562984427
0	29957	3038.45600894895	45.142058971664
0	30457	3083.598067920614	9.0349296523264
0	30585	3092.63299757294	2.3705177604897
0	30601	3095.00351533343	1.0834706754266
0	30617	3096.086986008857	12.865131739851
0	30781	3108.952117748708	2.7091085292067
0	30805	3111.661226277915	61.223735424321
0	31419	3172.884961702237	19.430638463969
0	31605	3192.315600166206	4.6206397664387
0	31637	3196.936239932645	0.99215055993774
0	31653	3197.928390492583	3.145233835124
0	31689	3201.073624327707	22.788676710267
0	31933	3223.862301037974	5.9032983024378
0	31981	3229.765599340412	0.15354498161758
0	31985	3229.91914432203	35.605692476644
0	32451	3265.524836798674	6.29049836614
0	32541	3271.815335164814	4.1710492778919
0	32611	3275.986384442706	7.1073590302755
0	32689	3283.093743472982	8.7361694345597
0	32785	3291.829912907542	27.264900804552
0	33057	3319.094813712094	11.97824509903
0	33147	3331.073058811124	7.6415295209268
0	33253	3338.714588332051	32.538694111322
0	33645	3371.253282443373	22.087577540335
0	33845	3393.340859983708	58.782247374736
0	34421	3452.123107358444	37.049038190947
0	34789	3489.172145549391	7.5384765359738
0	34849	3496.710622085365	2.1950213461008
0	34873	3498.905643431466	55.123390009841
0	35389	3554.029033441307	1.3504826546924
0	35401	3555.379516095999	24.999119091765
0	35613	3580.378635187764	11.202687696592
0	35729	3591.581322884356	45.801536967159
0	36117	3637.382859851515	0.86242876073413
0	36133	3638.245288612249	29.639097286374
0	36489	3667.884385898623	14.097184132935
0	36581	3681.981570031558	46.978084614603
0	37097	3728.959654646161	36.673108644755
0	37449	3765.632763290916	12.937508069734
0	37575	3778.57027136065	22.721109665762
0	37747	3801.291381026412	14.23771570974
0	37945	3815.529096736152	12.058014190128
0	38101	3827.58711092628	12.853016219578
0	38241	3840.440127145858	7.0457549419835
0	38305	3847.485882087842	26.16214226321
0	38577	3873.648024351052	53.455821299506
0	39135	3927.103845650558	11.346049455987
0	39233	3938.449895106545	41.325358178413
0	39601	3979.775253284958	2.1568321740784
0	39637	3981.932085459036	2.7827558735292
0	39665	3984.714841332565	43.128867371458
0	40101	4027.843708704023	25.606795271242
0	40409	4053.450503975265	19.429828912264
0	40585	4072.880332887529	32.016121444134
0	40865	4104.896454331663	24.71011998626
0	41059	4129.606574317923	20.476683941492
0	41249	4150.083258259415	66.19081428842
0	41905	4216.274072547835	66.517148051206
0	42533	4282.791220599041	27.463505664339
0	42821	4310.25472626338	16.255297692335
0	42965	4326.510023955715	5.2350740760479
0	43039	4331.745098031763	5.1487826407453
0	43093	4336.893880672508	8.9583894613182
0	43197	4345.852270133826	26.917102849952
0	43483	4372.769372983778	3.7667053503734
0	43505	4376.536078334151	0.18974777464103
0	43509	4376.725826108792	15.098656781739
0	43653	4391.824482890531	16.396848191477
0	43795	4408.221331082008	5.9654216735182
0	43847	4414.186752755526	3.1294072739964
0	43897	4417.316160029522	62.981681314308
0	44569	4480.29784134383	20.819892798609
0	44777	4501.117734142439	4.1934406452454
0	44815	4505.311174787684	20.959966631616
0	45017	4526.2711414193	19.519090260601
0	45211	4545.790231679901	7.180369275038
0	45257	4552.970600954939	2.2137510493338
0	45281	4555.184352004273	15.995381487987
0	45433	4571.17973349226	6.4592824676785
0	45513	4577.639015959939	25.825874093131
0	45801	4603.46489005307	19.686034158501
0	46015	4623.150924211571	31.633586949462
0	46317	4654.784511161033	9.9044819758956
0	46417	4664.688993136929	58.107570754386
0	46897	4722.796563891315	29.007287625947
0	47177	4751.803851517262	7.3111626754968
0	47253	4759.115014192759	4.1034997696457
0	47293	4763.218513962405	28.702369855675
0	47569	4791.92088381808	10.476422425372
0	47677	4802.397306243452	5.2937428204198
0	47713	4807.691049063872	20.145240901346
0	47913	4827.836289965218	34.819050504409
0	48247	4862.655340469627	61.376851387075
0	48895	4924.032191856702	85.593321960677
0	49685	5009.625513817379	4.0820343883756
0	49709	5013.707548205755	2.0300157087423
0	49735	5015.737563914497	28.832024896888
0	50017	5044.569588811385	16.613957197441
0	50169	5061.183546008826	26.531033808924
0	50453	5087.71457981775	8.6332614176168
0	50557	5096.347841235367	4.180389024458
0	50617	5100.528230259825	3.324010236278
0	50649	5103.852240496103	17.427207977875
0	50865	5121.279448473978	8.8095768460845
0	50969	5130.089025320062	25.507890940883
0	51245	5155.596916260945	34.614342017215
0	51601	5190.21125827816	1.2594090707409
0	51613	5191.470667348901	9.4276316216066
0	51705	5200.898298970508	13.346556641837
0	51873	5214.244855612345	30.218221971882
0	52169	5244.463077584227	14.222761035338
0	52261	5258.685838619565	7.6860953614829
0	52361	5266.371933981048	22.604985608367
0	52589	5288.976919589415	10.307466004369
0	52713	5299.284385593784	8.2853280595099
0	52795	5307.569713653294	0.890512533436
0	52809	5308.46022618673	39.479176827147
0	53217	5347.939403013877	15.196333997727
0	53369	5363.135737011604	2.1242320543476
0	53383	5365.259969065952	46.408785213191
0	53865	5411.668754279143	9.2113995795776
0	53941	5420.880153858721	34.629923528701
0	54291	5455.510077387422	12.670940674456
0	54401	5468.181018061878	3.7458592501112
0	54445	5471.926877311989	17.362189490655
0	54629	5489.289066802644	6.6715719488175
0	54729	5495.960638751462	7.6464849537236
0	54833	5503.607123705186	1.3999319558259
0	54861	5505.007055661012	43.030695212383
0	55317	5548.037750873395	6.6008419786536
0	55371	5554.638592852049	97.256256424973
0	56453	5651.894849277022	38.999875938861
0	56829	5690.894725215883	23.018876839212
0	57093	5713.913602055095	2.7344623286651
0	57117	5716.64806438376	22.359342552307
0	57347	5739.007406936067	26.038756757203
0	57613	5765.04616369327	7.182810640043
0	57697	5772.228974333313	13.983202116961
0	57905	5786.212176450274	16.774535743777
0	58077	5802.986712194051	18.94050006983
0	58249	5821.927212263881	5.0792379689956
0	58333	5827.006450232877	9.7445797774525
0	58453	5836.751030010329	16.168347632231
0	58641	5852.91937764256	16.813770670636
0	58813	5869.733148313196	54.968906812349
0	59443	5924.702055125545	28.882787234138
0	59771	5953.584842359683	15.100733621877
0	59921	5968.68557598156	32.835541568765
0	60289	6001.521117550325	8.8606703497702
0	60405	6010.381787900095	36.339533060284
0	60789	6046.721320960379	17.02955138054
0	60925	6063.750872340919	2.8064811315627
0	60957	6066.557353472482	18.287534767661
0	61171	6084.844888240143	3.4084835853688
0	61201	6088.253371825512	57.198564936622
0	61757	6145.451936762134	14.042911762629
0	61909	6159.494848524763	9.3975027318531
0	62001	6168.892351256616	9.5082924215701
0	62061	6178.400643678186	47.301672575395
0	62509	6225.702316253581	29.604673099454
0	62749	6255.306989353035	15.493876379861
0	62877	6270.800865732896	7.1032400276605
0	62963	6277.904105760556	16.582686973312
0	63107	6294.486792733868	36.038129898486
0	63455	6330.524922632354	59.640975251532
0	63989	6390.165897883886	48.211832904738
0	64477	6438.377730788624	34.856296259457
0	64793	6473.234027048081	10.003526985154
0	64913	6483.237554033235	50.804520817277
0	65425	6534.042074850512	34.322381909621
0	65785	6568.364456760133	23.180700091866
0	65989	6591.545156851999	31.541032838859
0	66235	6623.086189690858	5.14743829998
0	66269	6628.233627990838	8.7825951128704
0	66343	6637.016223103708	16.040202418244
0	66465	6653.056425521952	2.9654169484729
0	66499	6656.021842470425	27.380233323715
0	66737	6683.40207579414	0.43389041643443
0	66745	6683.835966210574	44.580278479211
0	67213	6728.416244689785	8.2463565438386
0	67333	6736.662601233624	12.172798442505
0	67441	6748.835399676129	6.6259368776408
0	67535	6755.46133655377	99.429916967448
0	68569	6854.891253521218	2.6242249918628
0	68613	6857.515478513081	2.5896240102463
0	68669	6860.105102523327	2.9163541464982
0	68689	6863.021456669825	42.077505917742
0	69149	6905.098962587567	25.768421842716
0	69445	6930.867384430283	42.42312121853
0	69801	6973.290505648813	28.389890538462
0	70061	7001.680396187275	0.49411373955911
0	70069	7002.174509926834	30.522702409448
0	70309	7032.697212336282	17.438700485617
0	70501	7050.135912821899	42.086816325309
0	70927	7092.222729147208	0.9219052195573
0	70945	7093.144634366765	2.3140412978569
0	70977	7095.458675664622	18.102730076119
0	71235	7113.561405740741	40.691080930227
0	71705	7154.252486670968	81.616288225198
0	72469	7235.868774896166	28.313125524424
0	72769	7264.18190042059	13.367638677956
0	72857	7277.549539098546	0.46307673254963
0	72871	7278.012615831096	12.149945828806
0	73027	7290.162561659902	12.571482344129
0	73153	7302.734044004031	33.29030584662
0	73501	7336.024349850651	8.2638457374947
0	73571	7344.288195588146	32.046751359928
0	73973	7376.334946948074	9.7875229344947
0	74033	7386.122469882569	65.515184915253
0	74711	7451.637654797822	64.558028502992
0	75375	7516.195683300814	39.465994496141
0	75771	7555.661677796955	9.161357190222
0	75867	7564.823034987177	66.446386710358
0	76497	7631.269421697535	10.597761639559
0	76581	7641.867183337094	18.207422519497
0	76737	7660.074605856591	58.219176587893
0	77225	7718.293782444484	4.1571776480348
0	77285	7722.450960092519	0.7798154489657
0	77293	7723.230775541485	7.0604163324973
0	77369	7730.291191873982	6.146307771847
0	77441	7736.437499645829	11.981855300641
0	77541	7748.41935494647	15.277266557147
0	77713	7763.696621503617	8.0491768179768
0	77817	7771.745798321594	0.38682578670343
0	77829	7772.132624108297	28.834790428754
0	78125	7800.967414537051	1.3852129551602
0	78129	7802.352627492211	35.962525114961
0	78485	7838.315152607172	67.657481667613
0	79177	7905.972634274785	13.939773196428
0	79325	7919.912407471213	15.264427347087
0	79481	7935.1768348183	44.930957342294
0	79997	7980.107792160594	58.838736567111
0	80571	8038.946528727705	19.119681070234
0	80725	8058.066209797939	2.6419045153846
0	80753	8060.708114313324	4.6182305487405
0	80813	8065.326344862065	36.340791605551
0	81149	8101.667136467616	20.176743474538
0	81365	8121.843879942154	35.481207708713
0	81711	8157.325087650867	61.393533405415
0	82289	8218.718621056282	15.950377717618
0	82413	8234.6689987739	17.134363842392
0	82597	8251.803362616292	45.980741976547
0	83093	8297.784104592839	2.6802952573531
0	83139	8300.464399850192	4.4779491504946
0	83195	8304.942349000687	2.6434251109268
0	83225	8307.585774111614	6.919088180816
0	83305	8314.50486229243	22.09227379804
0	83533	8336.59713609047	3.1554096580926
0	83573	8339.752545748563	52.723549187925
0	84097	8392.476094936488	13.495689848508
0	84265	8405.971784784996	2.2511406748186
0	84281	8408.222925459815	11.461077677267
0	84393	8419.684003137082	35.284830212156
0	84769	8454.968833349238	16.435748482932
0	84909	8471.40458183217	23.146599163904
0	85117	8494.551180996074	9.6230316976086
0	85229	8504.174212693683	65.350306613436
0	85825	8569.524519307119	19.739045416749
0	86009	8589.263564723868	8.3311653343105
0	86089	8597.594730058178	17.485240946599
0	86265	8615.079971004777	26.160221272741
0	86525	8641.240192277518	30.482060642591
0	86765	8671.722252920109	5.629256522267
0	86813	8677.351509442376	9.4342124762762
0	86917	8686.785721918652	104.57162228173
0	87761	8791.357344200385	1.7283146721337
0	87781	8793.085658872519	21.752598654547
0	88009	8814.838257527066	46.956611156715
0	88413	8861.794868683781	16.14282202201
0	88581	8877.937690705791	15.786273391364
0	88703	8893.723964097155	9.2416133970923
0	88785	8902.965577494247	48.53178729055
0	89239	8951.497364784797	4.9962440244357
0	89279	8956.493608809233	12.514479130417
0	89409	8969.00808793965	10.035412519383
0	89501	8979.043500459033	23.451648666515
0	89701	9002.495149125548	21.335606462387
0	89889	9023.830755587935	6.4567784080736
0	89941	9030.287533996009	10.084314857553
0	90033	9040.371848853562	1.889474596541
0	90059	9042.261323450103	4.8951449618078
0	90093	9047.156468411911	11.579133595634
0	90193	9058.735602007545	12.460372612773
0	90317	9071.195974620318	20.647497264142
0	90541	9091.84347188446	33.609436104561
0	90855	9125.452907989021	24.700120259024
0	91105	9150.153028248045	0.41606732958145
0	91111	9150.569095577626	10.071219716599
0	91231	9160.640315294225	15.992677768273
0	91381	9176.632993062498	38.65767126584
0	91721	9215.290664328338	18.876783484075
0	91885	9234.167447812413	11.086210783761
0	92023	9245.253658596174	19.894628133042
0	92229	9265.148286729216	108.6129879755
0	93269	9373.761274704715	6.1929706594068
0	93301	9379.954245364122	12.65773919671
0	93409	9392.611984560832	5.704715537364
0	93473	9398.316700098196	21.391891865944
0	93669	9419.70859196414	40.703467967121
0	93993	9460.412059931261	0.091011992752508
0	93999	9460.503071924014	10.507573879183
0	94113	9471.010645803197	56.352759800872
0	94641	9527.363405604069	22.115710196386
0	94971	9549.479115800455	37.139546173779