file 4449861 1767629704                                         
version 3
run Uniform-35-20260105-17:15:04-28078
attr configname Uniform
attr datetime 20260105-17:15:04
attr datetimef 20260105-171504
attr experiment Uniform
attr inifile omnetpp.ini
attr iterationvars "$N=75, $p=0.7"
attr iterationvarsd N=75/p=0.7
attr iterationvarsf N=75,p=0.7-
attr measurement "$N=75, $p=0.7"
attr network progetto.DatabaseNetwork
attr processid 28078
attr repetition 0
attr replication #0
attr resultdir results
attr runnumber 35
attr seedset 0
itervar N 75
itervar p 0.7
config description "Uniform distribution - varia N e p"
config *.user[*].tableDistribution "\"uniform\""
config *.numUsers 75
config *.user[*].readProbability 0.7
config network progetto.DatabaseNetwork
config sim-time-limit 10000s
config cpu-time-limit 3600s
config repeat 5
config seed-set 0
config output-vector-file "results/Uniform-$N=75, $p=0.7-0.vec"
config output-scalar-file "results/Uniform-$N=75, $p=0.7-0.sca"
config result-dir results
config **.vector-recording true
config **.scalar-recording true
config *.numTables 20
config *.user[*].lambda 0.05
config *.user[*].serviceTime 0.1s

vector 0 DatabaseNetwork.user[0] AccessInterval ETV
vector 1 DatabaseNetwork.user[1] AccessInterval ETV
vector 2 DatabaseNetwork.user[2] AccessInterval ETV
vector 3 DatabaseNetwork.user[3] AccessInterval ETV
vector 4 DatabaseNetwork.user[4] AccessInterval ETV
vector 5 DatabaseNetwork.user[5] AccessInterval ETV
vector 6 DatabaseNetwork.user[6] AccessInterval ETV
vector 7 DatabaseNetwork.user[7] AccessInterval ETV
vector 8 DatabaseNetwork.user[8] AccessInterval ETV
vector 9 DatabaseNetwork.user[9] AccessInterval ETV
vector 10 DatabaseNetwork.user[10] AccessInterval ETV
vector 11 DatabaseNetwork.user[11] AccessInterval ETV
vector 12 DatabaseNetwork.user[12] AccessInterval ETV
vector 13 DatabaseNetwork.user[13] AccessInterval ETV
vector 14 DatabaseNetwork.user[14] AccessInterval ETV
vector 15 DatabaseNetwork.user[15] AccessInterval ETV
vector 16 DatabaseNetwork.user[16] AccessInterval ETV
vector 17 DatabaseNetwork.user[17] AccessInterval ETV
vector 18 DatabaseNetwork.user[18] AccessInterval ETV
vector 19 DatabaseNetwork.user[19] AccessInterval ETV
vector 20 DatabaseNetwork.user[20] AccessInterval ETV
vector 21 DatabaseNetwork.user[21] AccessInterval ETV
vector 22 DatabaseNetwork.user[22] AccessInterval ETV
vector 23 DatabaseNetwork.user[23] AccessInterval ETV
vector 24 DatabaseNetwork.user[24] AccessInterval ETV
vector 25 DatabaseNetwork.user[25] AccessInterval ETV
vector 26 DatabaseNetwork.user[26] AccessInterval ETV
vector 27 DatabaseNetwork.user[27] AccessInterval ETV
vector 28 DatabaseNetwork.user[28] AccessInterval ETV
vector 29 DatabaseNetwork.user[29] AccessInterval ETV
vector 30 DatabaseNetwork.user[30] AccessInterval ETV
vector 31 DatabaseNetwork.user[31] AccessInterval ETV
vector 32 DatabaseNetwork.user[32] AccessInterval ETV
vector 33 DatabaseNetwork.user[33] AccessInterval ETV
vector 34 DatabaseNetwork.user[34] AccessInterval ETV
vector 35 DatabaseNetwork.user[35] AccessInterval ETV
vector 36 DatabaseNetwork.user[36] AccessInterval ETV
vector 37 DatabaseNetwork.user[37] AccessInterval ETV
vector 38 DatabaseNetwork.user[38] AccessInterval ETV
vector 39 DatabaseNetwork.user[39] AccessInterval ETV
vector 40 DatabaseNetwork.user[40] AccessInterval ETV
vector 41 DatabaseNetwork.user[41] AccessInterval ETV
vector 42 DatabaseNetwork.user[42] AccessInterval ETV
vector 43 DatabaseNetwork.user[43] AccessInterval ETV
vector 44 DatabaseNetwork.user[44] AccessInterval ETV
vector 45 DatabaseNetwork.user[45] AccessInterval ETV
vector 46 DatabaseNetwork.user[46] AccessInterval ETV
vector 47 DatabaseNetwork.user[47] AccessInterval ETV
vector 48 DatabaseNetwork.user[48] AccessInterval ETV
vector 49 DatabaseNetwork.user[49] AccessInterval ETV
vector 50 DatabaseNetwork.user[50] AccessInterval ETV
vector 51 DatabaseNetwork.user[51] AccessInterval ETV
vector 52 DatabaseNetwork.user[52] AccessInterval ETV
vector 53 DatabaseNetwork.user[53] AccessInterval ETV
vector 54 DatabaseNetwork.user[54] AccessInterval ETV
vector 55 DatabaseNetwork.user[55] AccessInterval ETV
vector 56 DatabaseNetwork.user[56] AccessInterval ETV
vector 57 DatabaseNetwork.user[57] AccessInterval ETV
vector 58 DatabaseNetwork.user[58] AccessInterval ETV
vector 59 DatabaseNetwork.user[59] AccessInterval ETV
vector 60 DatabaseNetwork.user[60] AccessInterval ETV
vector 61 DatabaseNetwork.user[61] AccessInterval ETV
vector 62 DatabaseNetwork.user[62] AccessInterval ETV
vector 63 DatabaseNetwork.user[63] AccessInterval ETV
vector 64 DatabaseNetwork.user[64] AccessInterval ETV
vector 65 DatabaseNetwork.user[65] AccessInterval ETV
vector 66 DatabaseNetwork.user[66] AccessInterval ETV
vector 67 DatabaseNetwork.user[67] AccessInterval ETV
vector 68 DatabaseNetwork.user[68] AccessInterval ETV
vector 69 DatabaseNetwork.user[69] AccessInterval ETV
vector 70 DatabaseNetwork.user[70] AccessInterval ETV
vector 71 DatabaseNetwork.user[71] AccessInterval ETV
vector 72 DatabaseNetwork.user[72] AccessInterval ETV
vector 73 DatabaseNetwork.user[73] AccessInterval ETV
vector 74 DatabaseNetwork.user[74] AccessInterval ETV
vector 75 DatabaseNetwork.user[68] WriteAccesses ETV
vector 76 DatabaseNetwork.user[32] ReadAccesses ETV
vector 77 DatabaseNetwork.user[68] WaitTime ETV
vector 78 DatabaseNetwork.user[32] WaitTime ETV
vector 79 DatabaseNetwork.user[15] ReadAccesses ETV
vector 80 DatabaseNetwork.user[15] WaitTime ETV
vector 81 DatabaseNetwork.user[28] WriteAccesses ETV
vector 82 DatabaseNetwork.user[28] WaitTime ETV
vector 83 DatabaseNetwork.user[30] ReadAccesses ETV
vector 84 DatabaseNetwork.user[30] WaitTime ETV
vector 85 DatabaseNetwork.user[57] ReadAccesses ETV
vector 86 DatabaseNetwork.user[57] WaitTime ETV
vector 87 DatabaseNetwork.user[48] ReadAccesses ETV
vector 88 DatabaseNetwork.user[48] WaitTime ETV
vector 89 DatabaseNetwork.user[67] ReadAccesses ETV
vector 90 DatabaseNetwork.user[67] WaitTime ETV
vector 91 DatabaseNetwork.user[37] WriteAccesses ETV
vector 92 DatabaseNetwork.user[52] ReadAccesses ETV
vector 93 DatabaseNetwork.user[37] WaitTime ETV
vector 94 DatabaseNetwork.user[52] WaitTime ETV
vector 95 DatabaseNetwork.user[71] WriteAccesses ETV
vector 96 DatabaseNetwork.user[71] WaitTime ETV
vector 97 DatabaseNetwork.user[61] ReadAccesses ETV
vector 98 DatabaseNetwork.user[61] WaitTime ETV
vector 99 DatabaseNetwork.user[65] ReadAccesses ETV
vector 100 DatabaseNetwork.user[65] WaitTime ETV
vector 101 DatabaseNetwork.user[57] WriteAccesses ETV
vector 102 DatabaseNetwork.user[73] ReadAccesses ETV
vector 103 DatabaseNetwork.user[73] WaitTime ETV
vector 104 DatabaseNetwork.user[30] WriteAccesses ETV
vector 105 DatabaseNetwork.user[60] WriteAccesses ETV
vector 106 DatabaseNetwork.user[60] WaitTime ETV
vector 107 DatabaseNetwork.user[17] ReadAccesses ETV
vector 108 DatabaseNetwork.user[17] WaitTime ETV
vector 109 DatabaseNetwork.user[13] ReadAccesses ETV
vector 110 DatabaseNetwork.user[13] WaitTime ETV
vector 111 DatabaseNetwork.user[69] WriteAccesses ETV
vector 112 DatabaseNetwork.user[69] WaitTime ETV
vector 113 DatabaseNetwork.user[29] WriteAccesses ETV
vector 114 DatabaseNetwork.user[29] WaitTime ETV
vector 115 DatabaseNetwork.user[69] ReadAccesses ETV
vector 116 DatabaseNetwork.user[33] WriteAccesses ETV
vector 117 DatabaseNetwork.user[33] WaitTime ETV
vector 118 DatabaseNetwork.user[32] WriteAccesses ETV
vector 119 DatabaseNetwork.user[18] ReadAccesses ETV
vector 120 DatabaseNetwork.user[11] ReadAccesses ETV
vector 121 DatabaseNetwork.user[18] WaitTime ETV
vector 122 DatabaseNetwork.user[11] WaitTime ETV
vector 123 DatabaseNetwork.user[25] WriteAccesses ETV
vector 124 DatabaseNetwork.user[25] WaitTime ETV
vector 125 DatabaseNetwork.user[58] ReadAccesses ETV
vector 126 DatabaseNetwork.user[58] WaitTime ETV
vector 127 DatabaseNetwork.user[8] ReadAccesses ETV
vector 128 DatabaseNetwork.user[8] WaitTime ETV
vector 129 DatabaseNetwork.user[12] ReadAccesses ETV
vector 130 DatabaseNetwork.user[12] WaitTime ETV
vector 131 DatabaseNetwork.user[64] ReadAccesses ETV
vector 132 DatabaseNetwork.user[64] WaitTime ETV
vector 133 DatabaseNetwork.user[44] ReadAccesses ETV
vector 134 DatabaseNetwork.user[44] WaitTime ETV
vector 135 DatabaseNetwork.user[59] ReadAccesses ETV
vector 136 DatabaseNetwork.user[41] WriteAccesses ETV
vector 137 DatabaseNetwork.user[59] WaitTime ETV
vector 138 DatabaseNetwork.user[41] WaitTime ETV
vector 139 DatabaseNetwork.user[19] ReadAccesses ETV
vector 140 DatabaseNetwork.user[23] ReadAccesses ETV
vector 141 DatabaseNetwork.user[19] WaitTime ETV
vector 142 DatabaseNetwork.user[23] WaitTime ETV
vector 143 DatabaseNetwork.user[45] ReadAccesses ETV
vector 144 DatabaseNetwork.user[56] ReadAccesses ETV
vector 145 DatabaseNetwork.user[45] WaitTime ETV
vector 146 DatabaseNetwork.user[56] WaitTime ETV
vector 147 DatabaseNetwork.user[22] ReadAccesses ETV
vector 148 DatabaseNetwork.user[22] WaitTime ETV
vector 149 DatabaseNetwork.user[53] ReadAccesses ETV
vector 150 DatabaseNetwork.user[53] WaitTime ETV
vector 151 DatabaseNetwork.user[23] WriteAccesses ETV
vector 152 DatabaseNetwork.user[6] ReadAccesses ETV
vector 153 DatabaseNetwork.user[6] WaitTime ETV
vector 154 DatabaseNetwork.user[0] WriteAccesses ETV
vector 155 DatabaseNetwork.user[0] WaitTime ETV
vector 156 DatabaseNetwork.user[24] ReadAccesses ETV
vector 157 DatabaseNetwork.user[66] WriteAccesses ETV
vector 158 DatabaseNetwork.user[24] WaitTime ETV
vector 159 DatabaseNetwork.user[66] WaitTime ETV
vector 160 DatabaseNetwork.user[51] ReadAccesses ETV
vector 161 DatabaseNetwork.user[51] WaitTime ETV
vector 162 DatabaseNetwork.user[1] ReadAccesses ETV
vector 163 DatabaseNetwork.user[1] WaitTime ETV
vector 164 DatabaseNetwork.user[4] ReadAccesses ETV
vector 165 DatabaseNetwork.user[4] WaitTime ETV
vector 166 DatabaseNetwork.user[24] WriteAccesses ETV
vector 167 DatabaseNetwork.user[72] ReadAccesses ETV
vector 168 DatabaseNetwork.user[72] WaitTime ETV
vector 169 DatabaseNetwork.user[74] WriteAccesses ETV
vector 170 DatabaseNetwork.user[70] ReadAccesses ETV
vector 171 DatabaseNetwork.user[74] WaitTime ETV
vector 172 DatabaseNetwork.user[70] WaitTime ETV
vector 173 DatabaseNetwork.user[9] WriteAccesses ETV
vector 174 DatabaseNetwork.user[72] WriteAccesses ETV
vector 175 DatabaseNetwork.user[9] WaitTime ETV
vector 176 DatabaseNetwork.user[50] ReadAccesses ETV
vector 177 DatabaseNetwork.user[50] WaitTime ETV
vector 178 DatabaseNetwork.user[10] ReadAccesses ETV
vector 179 DatabaseNetwork.user[10] WaitTime ETV
vector 180 DatabaseNetwork.user[31] ReadAccesses ETV
vector 181 DatabaseNetwork.user[31] WaitTime ETV
vector 182 DatabaseNetwork.user[48] WriteAccesses ETV
vector 183 DatabaseNetwork.user[52] WriteAccesses ETV
vector 184 DatabaseNetwork.user[47] ReadAccesses ETV
vector 185 DatabaseNetwork.user[47] WaitTime ETV
vector 186 DatabaseNetwork.user[71] ReadAccesses ETV
vector 187 DatabaseNetwork.user[10] WriteAccesses ETV
vector 188 DatabaseNetwork.user[2] ReadAccesses ETV
vector 189 DatabaseNetwork.user[2] WaitTime ETV
vector 190 DatabaseNetwork.user[49] ReadAccesses ETV
vector 191 DatabaseNetwork.user[49] WaitTime ETV
vector 192 DatabaseNetwork.user[63] ReadAccesses ETV
vector 193 DatabaseNetwork.user[63] WaitTime ETV
vector 194 DatabaseNetwork.user[55] ReadAccesses ETV
vector 195 DatabaseNetwork.user[55] WaitTime ETV
vector 196 DatabaseNetwork.user[25] ReadAccesses ETV
vector 197 DatabaseNetwork.user[50] WriteAccesses ETV
vector 198 DatabaseNetwork.user[29] ReadAccesses ETV
vector 199 DatabaseNetwork.user[63] WriteAccesses ETV
vector 200 DatabaseNetwork.user[62] ReadAccesses ETV
vector 201 DatabaseNetwork.user[62] WaitTime ETV
vector 202 DatabaseNetwork.user[36] ReadAccesses ETV
vector 203 DatabaseNetwork.user[36] WaitTime ETV
vector 204 DatabaseNetwork.user[46] ReadAccesses ETV
vector 205 DatabaseNetwork.user[46] WaitTime ETV
vector 206 DatabaseNetwork.user[11] WriteAccesses ETV
vector 207 DatabaseNetwork.user[20] WriteAccesses ETV
vector 208 DatabaseNetwork.user[20] WaitTime ETV
vector 209 DatabaseNetwork.user[42] ReadAccesses ETV
vector 210 DatabaseNetwork.user[42] WaitTime ETV
vector 211 DatabaseNetwork.user[43] ReadAccesses ETV
vector 212 DatabaseNetwork.user[43] WaitTime ETV
vector 213 DatabaseNetwork.user[55] WriteAccesses ETV
vector 214 DatabaseNetwork.user[21] ReadAccesses ETV
vector 215 DatabaseNetwork.user[21] WaitTime ETV
vector 216 DatabaseNetwork.user[22] WriteAccesses ETV
vector 217 DatabaseNetwork.user[43] WriteAccesses ETV
vector 218 DatabaseNetwork.user[9] ReadAccesses ETV
vector 219 DatabaseNetwork.user[44] WriteAccesses ETV
vector 220 DatabaseNetwork.user[65] WriteAccesses ETV
vector 221 DatabaseNetwork.user[41] ReadAccesses ETV
vector 222 DatabaseNetwork.user[34] ReadAccesses ETV
vector 223 DatabaseNetwork.user[34] WaitTime ETV
vector 224 DatabaseNetwork.user[27] ReadAccesses ETV
vector 225 DatabaseNetwork.user[62] WriteAccesses ETV
vector 226 DatabaseNetwork.user[27] WaitTime ETV
vector 227 DatabaseNetwork.user[3] ReadAccesses ETV
vector 228 DatabaseNetwork.user[3] WaitTime ETV
vector 229 DatabaseNetwork.user[7] ReadAccesses ETV
vector 230 DatabaseNetwork.user[7] WaitTime ETV
vector 231 DatabaseNetwork.user[33] ReadAccesses ETV
vector 232 DatabaseNetwork.user[5] ReadAccesses ETV
vector 233 DatabaseNetwork.user[5] WaitTime ETV
vector 234 DatabaseNetwork.user[12] WriteAccesses ETV
vector 235 DatabaseNetwork.user[38] ReadAccesses ETV
vector 236 DatabaseNetwork.user[39] ReadAccesses ETV
vector 237 DatabaseNetwork.user[38] WaitTime ETV
vector 238 DatabaseNetwork.user[39] WaitTime ETV
vector 239 DatabaseNetwork.user[17] WriteAccesses ETV
vector 240 DatabaseNetwork.user[74] ReadAccesses ETV
vector 241 DatabaseNetwork.user[46] WriteAccesses ETV
vector 242 DatabaseNetwork.user[14] ReadAccesses ETV
vector 243 DatabaseNetwork.user[14] WaitTime ETV
vector 244 DatabaseNetwork.user[68] ReadAccesses ETV
vector 245 DatabaseNetwork.user[3] WriteAccesses ETV
vector 246 DatabaseNetwork.user[0] ReadAccesses ETV
vector 247 DatabaseNetwork.user[61] WriteAccesses ETV
vector 248 DatabaseNetwork.user[45] WriteAccesses ETV
vector 249 DatabaseNetwork.user[1] WriteAccesses ETV
vector 250 DatabaseNetwork.user[26] ReadAccesses ETV
vector 251 DatabaseNetwork.user[26] WaitTime ETV
vector 252 DatabaseNetwork.user[39] WriteAccesses ETV
vector 253 DatabaseNetwork.user[20] ReadAccesses ETV
vector 254 DatabaseNetwork.user[58] WriteAccesses ETV
vector 255 DatabaseNetwork.user[70] WriteAccesses ETV
vector 256 DatabaseNetwork.user[54] WriteAccesses ETV
vector 257 DatabaseNetwork.user[54] WaitTime ETV
vector 258 DatabaseNetwork.user[28] ReadAccesses ETV
vector 259 DatabaseNetwork.user[4] WriteAccesses ETV
vector 260 DatabaseNetwork.user[66] ReadAccesses ETV
vector 261 DatabaseNetwork.user[35] ReadAccesses ETV
vector 262 DatabaseNetwork.user[35] WaitTime ETV
vector 263 DatabaseNetwork.user[18] WriteAccesses ETV
vector 264 DatabaseNetwork.user[14] WriteAccesses ETV
vector 265 DatabaseNetwork.user[6] WriteAccesses ETV
vector 266 DatabaseNetwork.user[54] ReadAccesses ETV
vector 267 DatabaseNetwork.user[16] ReadAccesses ETV
vector 268 DatabaseNetwork.user[16] WaitTime ETV
vector 269 DatabaseNetwork.user[37] ReadAccesses ETV
vector 270 DatabaseNetwork.user[56] WriteAccesses ETV
vector 271 DatabaseNetwork.user[34] WriteAccesses ETV
vector 272 DatabaseNetwork.user[40] ReadAccesses ETV
vector 273 DatabaseNetwork.user[40] WaitTime ETV
vector 274 DatabaseNetwork.user[8] WriteAccesses ETV
vector 275 DatabaseNetwork.user[60] ReadAccesses ETV
vector 276 DatabaseNetwork.user[19] WriteAccesses ETV
vector 277 DatabaseNetwork.user[40] WriteAccesses ETV
vector 278 DatabaseNetwork.user[51] WriteAccesses ETV
vector 279 DatabaseNetwork.user[13] WriteAccesses ETV
vector 280 DatabaseNetwork.user[36] WriteAccesses ETV
vector 281 DatabaseNetwork.user[47] WriteAccesses ETV
vector 282 DatabaseNetwork.user[49] WriteAccesses ETV
vector 283 DatabaseNetwork.user[42] WriteAccesses ETV
vector 284 DatabaseNetwork.user[5] WriteAccesses ETV
vector 285 DatabaseNetwork.user[7] WriteAccesses ETV
vector 286 DatabaseNetwork.user[64] WriteAccesses ETV
vector 287 DatabaseNetwork.user[38] WriteAccesses ETV
vector 288 DatabaseNetwork.user[21] WriteAccesses ETV
vector 289 DatabaseNetwork.user[31] WriteAccesses ETV
vector 290 DatabaseNetwork.user[2] WriteAccesses ETV
vector 291 DatabaseNetwork.user[67] WriteAccesses ETV
vector 292 DatabaseNetwork.user[59] WriteAccesses ETV
vector 293 DatabaseNetwork.user[27] WriteAccesses ETV
vector 294 DatabaseNetwork.user[15] WriteAccesses ETV
vector 295 DatabaseNetwork.user[35] WriteAccesses ETV
vector 296 DatabaseNetwork.user[53] WriteAccesses ETV
vector 297 DatabaseNetwork.user[16] WriteAccesses ETV
vector 298 DatabaseNetwork.user[73] WriteAccesses ETV
vector 299 DatabaseNetwork.user[26] WriteAccesses ETV
0	16769 20810 0 150017 0 9992.881905136218 496 0.0033290940215248 159.57446540195 10042.643726409 396939.41820379
1	37579 22423 0 149841 0 9980.880232660672 535 0.043612164345251 117.50178760534 10001.843787823 366759.76341645
2	60002 21575 0 149993 0 9990.922400986679 514 8.0219630844018e-05 124.54864335957 10069.087048838 384713.85229819
3	81577 21248 0 150109 0 9998.034212840879 507 0.041177514348657 103.31376988223 10000.176335936 367807.72768522
4	102825 22000 0 149463 0 9956.727722269645 525 0.023983977804137 143.41117654865 10001.863893955 372061.39736002
5	124825 19466 0 150025 0 9993.273997871668 463 0.044378440671203 197.65967260175 10000.55041725 404930.44318916
6	144291 22179 0 149593 0 9963.034226687534 528 0.018160143006007 117.9129436911 10052.272517543 376783.57831051
7	166470 20744 0 150129 0 9999.234035531285 495 0.016150330009432 117.56391706295 10033.250323687 386237.67818872
8	187214 22080 0 149871 0 9982.822015863806 526 0.045707816217883 194.52080564538 10003.542234486 374671.40064801
9	209294 20608 0 149957 0 9988.22277899036 491 0.040639442231066 130.40331372053 10001.963378274 419637.97577202
10	229902 21849 0 149617 0 9964.620018904401 509 0.055926430144227 125.50620882393 10003.154372725 379069.18515227
11	251751 21861 0 149929 0 9986.4219601233 509 0.0066438408192016 133.3023782798 10008.987060506 378587.30455299
12	273612 21296 0 149417 0 9952.504014995676 495 0.018322723193423 145.11218810812 10006.446481359 394175.3621404
13	294908 22960 0 150041 0 9994.665029423648 534 0.035337592495223 174.57607665941 10023.673592568 419990.71923194
14	317868 22476 0 149597 0 9963.190288082918 524 0.04162195713753 120.18176293742 10062.83578089 380074.20217268
15	340344 21726 0 150121 0 9998.907382676751 507 0.0029315014128775 144.95121498272 10003.83545036 379831.03475701
16	362070 21093 0 149821 0 9980.052917734746 491 0.038468253611025 140.44122171947 10004.612061589 410673.83422363
17	383163 22824 0 150061 0 9996.142158298257 532 0.0011070379028486 183.67130023346 10004.792343851 408564.97424575
18	405987 22683 0 149789 0 9977.888610824667 528 0.049754204801472 169.12318948833 10021.730900772 390439.42596564
19	428670 20166 0 150085 0 9996.71655801723 470 0.00092572346664555 174.6172314558 10002.678649678 437776.71158438
20	448836 21742 0 149757 0 9974.586344719328 506 0.041335316865598 198.30021311223 10010.717284376 412479.08595141
21	470578 21834 0 149941 0 9986.883955759638 509 0.0075889479196272 102.65404057118 10024.573265634 374322.28183298
22	492412 22018 0 150125 0 9999.037050582285 513 0.0309288223188 143.60777491916 10005.382850621 385899.06983403
23	514430 21315 0 149193 0 9938.970555674755 496 0.043653260036307 157.9275382639 10003.756652298 435959.85662885
24	535745 21021 0 149889 0 9984.023464416426 489 0.035317501005752 127.33982105687 10004.987212365 390024.1490052
25	556766 21599 0 149947 0 9987.001200786709 504 0.072364827017258 117.12516608639 10012.183238413 397453.09584391
26	578365 20726 0 150099 0 9997.725828285936 482 0.060987983898366 157.52358849105 10013.138149721 428596.58508556
27	599091 20240 0 150063 0 9996.145194679546 471 0.093848824396771 129.3133209829 10011.817428336 393942.75584704
28	619331 22761 0 149921 0 9985.83046749404 530 0.00040060310428949 98.246202199126 10009.908256486 362911.04426536
29	642092 22356 0 148665 0 9903.42232913384 521 0.043289291234851 162.44170424581 10065.86403338 378190.61895917
30	664448 21211 0 150075 0 9996.355540256968 494 0.11157540290214 191.6704229798 10006.1917492 443833.20751037
31	685659 22266 0 150101 0 9997.726046220605 518 0.046840164639133 149.11005162809 10000.332024869 392356.1418354
32	707925 20007 0 149573 0 9962.100374196127 467 0.035115150463922 128.01422285641 10002.280340746 428085.45584044
33	727932 22720 0 149737 0 9973.069970029952 530 0.057324614996326 153.32647952234 10014.860484123 374715.88945694
34	750652 21304 0 149943 0 9986.891947814371 496 0.016413200170964 123.21594258741 10032.516914158 406891.74459621
35	771956 20684 0 149797 0 9978.090222481642 482 0.017173243165545 159.82075323883 10003.467747371 433381.71503608
36	792640 21132 0 150115 0 9998.164933683461 492 0.034686115124155 171.85811330909 10023.258355726 437299.15531923
37	813772 20251 0 150133 0 9999.843497727108 472 0.042487334426532 130.83512369481 10006.53715025 444588.91333631
38	834023 21298 0 149517 0 9960.147963334037 496 0.050468397909033 144.87958835668 10018.207893751 441137.03368239
39	855321 20894 0 150135 0 9999.851489374218 486 0.029059072502641 170.48887033836 10019.660625359 415530.27767156
40	876215 21431 0 149937 0 9986.66736126396 499 0.023033685418907 124.42489018041 10001.596837248 378441.43200317
41	897646 21738 0 149387 0 9950.581274753819 506 0.028830087686954 118.75557899091 10003.127002021 398422.23086108
42	919384 22776 0 149531 0 9960.430662701153 531 0.01517490009216 130.22768306487 10000.255828035 361120.25355842
43	942160 21818 0 150035 0 9994.391855451487 508 0.12752849986043 111.56091535428 10010.793207057 378367.58367892
44	963978 21143 0 150033 0 9994.344500699597 492 0.068037734891871 188.35988661658 10054.61156063 424122.44790377
45	985121 21582 0 149977 0 9989.271109329487 502 0.045189858943017 114.82397353946 10049.559262051 398024.01523237
46	1006703 20133 0 149501 0 9958.66256811288 469 0.013835790987459 97.715671262287 10022.512976387 402773.4400776
47	1026836 20821 0 149721 0 9972.39040122107 485 0.010903305967085 132.48688346731 10013.140175065 414730.91297974
48	1047657 21484 0 149659 0 9968.587673351119 500 0.076720332282591 129.66180984665 10022.649353207 384744.19855355
49	1069141 20973 0 149927 0 9986.378883986693 488 0.076465587132286 111.34213379683 10010.046695925 416358.4432882
50	1090114 20652 0 149651 0 9968.371297435558 481 0.068158196490358 130.15313695805 10034.745188109 419592.32912715
51	1110766 21139 0 150021 0 9993.164041361746 492 0.058243323694872 109.47785575781 10014.99518541 382737.15522573
52	1131905 21581 0 149749 0 9973.845406172739 504 0.10406265614731 117.54405031943 10004.942043663 379210.60457003
53	1153486 21141 0 149981 0 9989.582371558522 492 0.045917064903931 151.46342846019 10013.442884477 429621.58714989
54	1174627 22695 0 150079 0 9996.419101293834 529 0.062910806631082 183.50137997266 10036.845148191 396390.88037129
55	1197322 21621 0 150093 0 9997.304428838486 503 0.0037346262254305 214.44649959218 10002.029155654 404569.37291756
56	1218943 21928 0 149739 0 9973.134619757352 510 0.012667539140039 122.56397910572 10010.759851485 392015.17820541
57	1240871 23123 0 149985 0 9990.141012765501 540 0.015315972571654 112.43500559264 10018.146026536 370942.18508415
58	1263994 21004 0 149067 0 9930.0307153495 489 0.014344357907685 123.21614336438 10010.351001739 426543.82913287
59	1284998 20676 0 150045 0 9995.403534337802 481 0.041612353865972 148.33836937771 10035.102413158 425569.07428662
60	1305674 21221 0 150053 0 9995.733280092999 494 0.019006994165836 118.60961196785 10011.598062615 407106.90157015
61	1326895 20624 0 150003 0 9991.629638951176 480 0.0052135573475197 160.78274825744 10026.974076613 428995.53887266
62	1347519 21426 0 150111 0 9998.103366969328 498 0.030787140644357 178.21895212618 10047.514554308 412131.95470295
63	1368945 21048 0 149061 0 9929.859218689039 490 0.024087297094687 127.03509992544 10020.035601153 388324.25866314
64	1389993 21139 0 150073 0 9996.299298837776 492 0.046955863744104 243.41944211079 10012.614891977 440094.40100829
65	1411132 22265 0 150001 0 9991.619916612037 518 0.0089524696590117 171.79665261115 10041.374490729 407943.76859403
66	1433397 21663 0 150089 0 9996.905581052967 504 0.10279405878735 128.20602593013 10004.608923018 375188.54848712
67	1455060 21350 0 149325 0 9946.698906368965 497 0.068069339579127 108.05552795079 10039.239122999 395477.67506566
68	1476410 21016 0 149513 0 9960.08232572679 489 0.0028012885128166 170.50320494408 10028.317206031 415939.37891732
69	1497426 22293 0 150047 0 9995.48985012969 519 0.020558602831469 135.44416845697 10020.808324832 374618.53831064
70	1519719 21202 0 149989 0 9990.630904122707 494 0.06667024454244 285.62370611772 10002.191083032 459092.12896437
71	1540921 24182 0 149881 0 9983.675839036851 563 0.0012114359011624 103.70877443585 10000.723015409 340992.37961314
72	1565103 19914 0 148669 0 9903.693062987262 465 0.039640626438394 127.47441379485 10009.360439797 422549.20736584
73	1585017 20990 0 150055 0 9995.746446362678 489 0.093032828474591 167.65305297558 10035.019288356 415635.49820135
74	1606007 20754 0 149515 0 9960.143458589484 484 0.090355817891761 151.18547010785 10019.378719219 399858.88234794
75	1626761 4278 1 148741 0.379371384022 9907.961944298514 147 1 1 147 147
76	1631039 9966 3 149573 0.408511767981 9962.100374196127 344 1 1 344 344
77	1641005 21698 6 149520 0.479371384022 9960.18232572679 488 0.099999999998545 0.19709782865175 49.166034878137 4.9830256686393
78	1662703 20647 8 149580 0.508511767981 9962.200374196127 466 0.099999999998545 0.16846980889568 46.807038745103 4.7115441204665
79	1683350 10339 9 150121 1.167693381862 9998.907382676751 357 1 1 357 357
80	1693689 22420 12 150124 1.267693381862 9999.007382676751 506 0.099999999998545 0.19699504869186 50.733534496501 5.0974500700167
81	1716109 5096 13 148947 1.473707109302 9923.753295764067 176 1 1 176 176
82	1721205 23509 16 149924 1.573707109302 9985.93046749404 529 0.099999999998545 0.16466158460935 53.070994926725 5.3317001101761
83	1744714 9823 17 150075 1.823220522486 9996.355540256968 338 1 1 338 338
84	1754537 21886 20 150082 1.923220522486 9996.455540256968 493 0.099999999998545 0.17952241195599 49.63651273091 5.0203678678848
85	1776423 11044 21 149985 2.238923212653 9990.141012765501 382 1 1 382 382
86	1787467 23822 24 149988 2.338923212653 9990.241012765501 539 0.099999999998545 0.16705550268296 54.067067356509 5.4329118041717
87	1811289 9933 25 149659 2.517488188761 9968.587673351119 342 1 1 342 342
88	1821222 22197 28 149666 2.617488188761 9968.687673351119 499 0.099999999998545 0.15853488042558 50.11312328317 5.0422882268082
89	1843419 10191 29 149325 2.905560545844 9946.698906368965 351 1 1 351 351
90	1853610 22043 32 149328 3.005560545844 9946.798906368965 496 0.099999999998545 0.19563643756373 49.778103933275 5.0080642919698
91	1875653 4269 33 150133 3.0246170733 9999.843497727108 147 1 1 147 147
92	1879922 10570 35 149157 3.094593610001 9936.906423468281 365 1 1 365 365
93	1890492 20937 38 150138 3.1246170733 9999.943497727108 471 0.099999999998545 0.19316939458199 47.394232487323 4.7904640383472
94	1911429 22277 40 149752 3.194593610001 9973.945406172739 503 0.099999999998545 0.14101475597499 50.395617486347 5.0519125250336
95	1933706 4660 41 149881 3.242729788919 9983.675839036851 160 1 1 160 160
96	1938366 25000 46 149884 3.342729788919 9983.775839036851 562 0.099999999998545 0.22095538573831 56.659020283561 5.7504066307151
97	1963366 9519 53 150003 4.12406564061 9991.629638951176 328 1 1 328 328
98	1972885 21252 56 150010 4.22406564061 9991.729638951176 479 0.099999999998545 0.19468427458833 48.179897604267 4.8655590343551
99	1994137 9801 57 150001 4.88096981473 9991.619916612037 337 1 1 337 337
100	2003938 23505 60 150006 4.98096981473 9991.719916612037 517 0.099999999998545 0.19177167351336 52.014643440285 5.2577582475735
101	2027443 4709 61 148925 4.999496981222 9922.971715217026 157 1 1 157 157
102	2032152 10674 63 150029 5.028838641496 9994.230068002402 356 1 1 356 356
103	2042826 22140 68 150060 5.128838641496 9995.846446362678 488 0.099999999998545 0.16934551781105 48.978957796996 4.926565664333
104	2064966 4651 69 149781 5.571741842844 9976.905181448434 155 1 1 155 155
105	2069617 4232 73 149403 6.145607043051 9951.579054919243 141 1 1 141 141
106	2073849 22434 76 150058 6.245607043051 9995.833280092999 493 0.099999999998545 0.16747696690572 49.463058506162 4.9694794021565
107	2096283 11025 77 149765 6.367122816836 9975.446720267483 368 1 1 368 368
108	2107308 24042 80 150068 6.467122816836 9996.242158298257 531 0.099999999998545 0.19659631108607 53.468233304463 5.4152095673953
109	2131350 11420 81 150041 7.06318278275 9994.665029423648 380 1 1 380 380
110	2142770 24271 88 150044 7.16318278275 9994.765029423648 533 0.099999999998545 0.17758041547495 53.408119165431 5.3585751692009
111	2167041 4844 95 149477 7.835416213534 9957.382846316829 161 1 1 161 161
112	2171885 23534 102 150052 7.935416213534 9995.58985012969 518 0.099999999998545 0.14534803037623 51.859596793635 5.1940834160135
113	2195419 4244 105 146295 8.231559924852 9745.27385828238 142 1 1 142 142
114	2199663 23606 108 148668 8.331559924852 9903.52232913384 520 0.099999999998545 0.16696924794269 52.274644387415 5.270996098606
115	2223269 10719 109 150047 9.161364243178 9995.48985012969 357 1 1 357 357
116	2233988 4785 111 149629 9.184962745104 9965.408404333958 160 1 1 160 160
117	2238773 23975 116 149742 9.284962745104 9973.169970029952 529 0.099999999998545 0.1844833486939 53.338856268473 5.4064907707199
118	2262748 3661 117 148643 9.318881669005 9902.734153938818 122 1 1 122 122
119	2266409 10791 121 149633 9.672042098969 9965.546245346587 359 1 1 359 359