file 2929958 1767629702                                         
version 3
run Uniform-2-20260105-17:15:02-28078
attr configname Uniform
attr datetime 20260105-17:15:02
attr datetimef 20260105-171502
attr experiment Uniform
attr inifile omnetpp.ini
attr iterationvars "$N=50, $p=0.3"
attr iterationvarsd N=50/p=0.3
attr iterationvarsf N=50,p=0.3-
attr measurement "$N=50, $p=0.3"
attr network progetto.DatabaseNetwork
attr processid 28078
attr repetition 2
attr replication #2
attr resultdir results
attr runnumber 2
attr seedset 2
itervar N 50
itervar p 0.3
config description "Uniform distribution - varia N e p"
config *.user[*].tableDistribution "\"uniform\""
config *.numUsers 50
config *.user[*].readProbability 0.3
config network progetto.DatabaseNetwork
config sim-time-limit 10000s
config cpu-time-limit 3600s
config repeat 5
config seed-set 2
config output-vector-file "results/Uniform-$N=50, $p=0.3-2.vec"
config output-scalar-file "results/Uniform-$N=50, $p=0.3-2.sca"
config result-dir results
config **.vector-recording true
config **.scalar-recording true
config *.numTables 20
config *.user[*].lambda 0.05
config *.user[*].serviceTime 0.1s

vector 0 DatabaseNetwork.user[0] AccessInterval ETV
vector 1 DatabaseNetwork.user[1] AccessInterval ETV
vector 2 DatabaseNetwork.user[2] AccessInterval ETV
vector 3 DatabaseNetwork.user[3] AccessInterval ETV
vector 4 DatabaseNetwork.user[4] AccessInterval ETV
vector 5 DatabaseNetwork.user[5] AccessInterval ETV
vector 6 DatabaseNetwork.user[6] AccessInterval ETV
vector 7 DatabaseNetwork.user[7] AccessInterval ETV
vector 8 DatabaseNetwork.user[8] AccessInterval ETV
vector 9 DatabaseNetwork.user[9] AccessInterval ETV
vector 10 DatabaseNetwork.user[10] AccessInterval ETV
vector 11 DatabaseNetwork.user[11] AccessInterval ETV
vector 12 DatabaseNetwork.user[12] AccessInterval ETV
vector 13 DatabaseNetwork.user[13] AccessInterval ETV
vector 14 DatabaseNetwork.user[14] AccessInterval ETV
vector 15 DatabaseNetwork.user[15] AccessInterval ETV
vector 16 DatabaseNetwork.user[16] AccessInterval ETV
vector 17 DatabaseNetwork.user[17] AccessInterval ETV
vector 18 DatabaseNetwork.user[18] AccessInterval ETV
vector 19 DatabaseNetwork.user[19] AccessInterval ETV
vector 20 DatabaseNetwork.user[20] AccessInterval ETV
vector 21 DatabaseNetwork.user[21] AccessInterval ETV
vector 22 DatabaseNetwork.user[22] AccessInterval ETV
vector 23 DatabaseNetwork.user[23] AccessInterval ETV
vector 24 DatabaseNetwork.user[24] AccessInterval ETV
vector 25 DatabaseNetwork.user[25] AccessInterval ETV
vector 26 DatabaseNetwork.user[26] AccessInterval ETV
vector 27 DatabaseNetwork.user[27] AccessInterval ETV
vector 28 DatabaseNetwork.user[28] AccessInterval ETV
vector 29 DatabaseNetwork.user[29] AccessInterval ETV
vector 30 DatabaseNetwork.user[30] AccessInterval ETV
vector 31 DatabaseNetwork.user[31] AccessInterval ETV
vector 32 DatabaseNetwork.user[32] AccessInterval ETV
vector 33 DatabaseNetwork.user[33] AccessInterval ETV
vector 34 DatabaseNetwork.user[34] AccessInterval ETV
vector 35 DatabaseNetwork.user[35] AccessInterval ETV
vector 36 DatabaseNetwork.user[36] AccessInterval ETV
vector 37 DatabaseNetwork.user[37] AccessInterval ETV
vector 38 DatabaseNetwork.user[38] AccessInterval ETV
vector 39 DatabaseNetwork.user[39] AccessInterval ETV
vector 40 DatabaseNetwork.user[40] AccessInterval ETV
vector 41 DatabaseNetwork.user[41] AccessInterval ETV
vector 42 DatabaseNetwork.user[42] AccessInterval ETV
vector 43 DatabaseNetwork.user[43] AccessInterval ETV
vector 44 DatabaseNetwork.user[44] AccessInterval ETV
vector 45 DatabaseNetwork.user[45] AccessInterval ETV
vector 46 DatabaseNetwork.user[46] AccessInterval ETV
vector 47 DatabaseNetwork.user[47] AccessInterval ETV
vector 48 DatabaseNetwork.user[48] AccessInterval ETV
vector 49 DatabaseNetwork.user[49] AccessInterval ETV
vector 50 DatabaseNetwork.user[2] WriteAccesses ETV
vector 51 DatabaseNetwork.user[2] WaitTime ETV
vector 52 DatabaseNetwork.user[42] ReadAccesses ETV
vector 53 DatabaseNetwork.user[42] WaitTime ETV
vector 54 DatabaseNetwork.user[38] WriteAccesses ETV
vector 55 DatabaseNetwork.user[38] WaitTime ETV
vector 56 DatabaseNetwork.user[46] WriteAccesses ETV
vector 57 DatabaseNetwork.user[46] WaitTime ETV
vector 58 DatabaseNetwork.user[45] WriteAccesses ETV
vector 59 DatabaseNetwork.user[15] WriteAccesses ETV
vector 60 DatabaseNetwork.user[45] WaitTime ETV
vector 61 DatabaseNetwork.user[15] WaitTime ETV
vector 62 DatabaseNetwork.user[48] WriteAccesses ETV
vector 63 DatabaseNetwork.user[48] WaitTime ETV
vector 64 DatabaseNetwork.user[24] ReadAccesses ETV
vector 65 DatabaseNetwork.user[24] WaitTime ETV
vector 66 DatabaseNetwork.user[11] WriteAccesses ETV
vector 67 DatabaseNetwork.user[11] WaitTime ETV
vector 68 DatabaseNetwork.user[37] ReadAccesses ETV
vector 69 DatabaseNetwork.user[37] WaitTime ETV
vector 70 DatabaseNetwork.user[47] WriteAccesses ETV
vector 71 DatabaseNetwork.user[28] ReadAccesses ETV
vector 72 DatabaseNetwork.user[1] WriteAccesses ETV
vector 73 DatabaseNetwork.user[47] WaitTime ETV
vector 74 DatabaseNetwork.user[28] WaitTime ETV
vector 75 DatabaseNetwork.user[1] WaitTime ETV
vector 76 DatabaseNetwork.user[12] WriteAccesses ETV
vector 77 DatabaseNetwork.user[12] WaitTime ETV
vector 78 DatabaseNetwork.user[31] ReadAccesses ETV
vector 79 DatabaseNetwork.user[31] WaitTime ETV
vector 80 DatabaseNetwork.user[24] WriteAccesses ETV
vector 81 DatabaseNetwork.user[18] WriteAccesses ETV
vector 82 DatabaseNetwork.user[18] WaitTime ETV
vector 83 DatabaseNetwork.user[43] WriteAccesses ETV
vector 84 DatabaseNetwork.user[43] WaitTime ETV
vector 85 DatabaseNetwork.user[41] WriteAccesses ETV
vector 86 DatabaseNetwork.user[16] ReadAccesses ETV
vector 87 DatabaseNetwork.user[41] WaitTime ETV
vector 88 DatabaseNetwork.user[16] WaitTime ETV
vector 89 DatabaseNetwork.user[9] WriteAccesses ETV
vector 90 DatabaseNetwork.user[9] WaitTime ETV
vector 91 DatabaseNetwork.user[46] ReadAccesses ETV
vector 92 DatabaseNetwork.user[10] WriteAccesses ETV
vector 93 DatabaseNetwork.user[10] WaitTime ETV
vector 94 DatabaseNetwork.user[35] WriteAccesses ETV
vector 95 DatabaseNetwork.user[35] WaitTime ETV
vector 96 DatabaseNetwork.user[8] WriteAccesses ETV
vector 97 DatabaseNetwork.user[8] WaitTime ETV
vector 98 DatabaseNetwork.user[44] WriteAccesses ETV
vector 99 DatabaseNetwork.user[44] WaitTime ETV
vector 100 DatabaseNetwork.user[6] WriteAccesses ETV
vector 101 DatabaseNetwork.user[0] WriteAccesses ETV
vector 102 DatabaseNetwork.user[6] WaitTime ETV
vector 103 DatabaseNetwork.user[0] WaitTime ETV
vector 104 DatabaseNetwork.user[7] ReadAccesses ETV
vector 105 DatabaseNetwork.user[17] WriteAccesses ETV
vector 106 DatabaseNetwork.user[7] WaitTime ETV
vector 107 DatabaseNetwork.user[17] WaitTime ETV
vector 108 DatabaseNetwork.user[34] ReadAccesses ETV
vector 109 DatabaseNetwork.user[49] WriteAccesses ETV
vector 110 DatabaseNetwork.user[34] WaitTime ETV
vector 111 DatabaseNetwork.user[49] WaitTime ETV
vector 112 DatabaseNetwork.user[25] WriteAccesses ETV
vector 113 DatabaseNetwork.user[25] WaitTime ETV
vector 114 DatabaseNetwork.user[40] WriteAccesses ETV
vector 115 DatabaseNetwork.user[40] WaitTime ETV
vector 116 DatabaseNetwork.user[26] ReadAccesses ETV
vector 117 DatabaseNetwork.user[26] WaitTime ETV
vector 118 DatabaseNetwork.user[22] WriteAccesses ETV
vector 119 DatabaseNetwork.user[22] WaitTime ETV
vector 120 DatabaseNetwork.user[28] WriteAccesses ETV
vector 121 DatabaseNetwork.user[33] ReadAccesses ETV
vector 122 DatabaseNetwork.user[33] WaitTime ETV
vector 123 DatabaseNetwork.user[4] WriteAccesses ETV
vector 124 DatabaseNetwork.user[4] WaitTime ETV
vector 125 DatabaseNetwork.user[35] ReadAccesses ETV
vector 126 DatabaseNetwork.user[27] WriteAccesses ETV
vector 127 DatabaseNetwork.user[27] WaitTime ETV
vector 128 DatabaseNetwork.user[34] WriteAccesses ETV
vector 129 DatabaseNetwork.user[14] WriteAccesses ETV
vector 130 DatabaseNetwork.user[20] WriteAccesses ETV
vector 131 DatabaseNetwork.user[14] WaitTime ETV
vector 132 DatabaseNetwork.user[20] WaitTime ETV
vector 133 DatabaseNetwork.user[19] WriteAccesses ETV
vector 134 DatabaseNetwork.user[19] WaitTime ETV
vector 135 DatabaseNetwork.user[1] ReadAccesses ETV
vector 136 DatabaseNetwork.user[2] ReadAccesses ETV
vector 137 DatabaseNetwork.user[6] ReadAccesses ETV
vector 138 DatabaseNetwork.user[23] WriteAccesses ETV
vector 139 DatabaseNetwork.user[23] WaitTime ETV
vector 140 DatabaseNetwork.user[45] ReadAccesses ETV
vector 141 DatabaseNetwork.user[13] WriteAccesses ETV
vector 142 DatabaseNetwork.user[0] ReadAccesses ETV
vector 143 DatabaseNetwork.user[13] WaitTime ETV
vector 144 DatabaseNetwork.user[29] WriteAccesses ETV
vector 145 DatabaseNetwork.user[29] WaitTime ETV
vector 146 DatabaseNetwork.user[10] ReadAccesses ETV
vector 147 DatabaseNetwork.user[9] ReadAccesses ETV
vector 148 DatabaseNetwork.user[42] WriteAccesses ETV
vector 149 DatabaseNetwork.user[30] WriteAccesses ETV
vector 150 DatabaseNetwork.user[30] WaitTime ETV
vector 151 DatabaseNetwork.user[21] ReadAccesses ETV
vector 152 DatabaseNetwork.user[21] WaitTime ETV
vector 153 DatabaseNetwork.user[49] ReadAccesses ETV
vector 154 DatabaseNetwork.user[25] ReadAccesses ETV
vector 155 DatabaseNetwork.user[36] WriteAccesses ETV
vector 156 DatabaseNetwork.user[36] WaitTime ETV
vector 157 DatabaseNetwork.user[32] WriteAccesses ETV
vector 158 DatabaseNetwork.user[32] WaitTime ETV
vector 159 DatabaseNetwork.user[18] ReadAccesses ETV
vector 160 DatabaseNetwork.user[20] ReadAccesses ETV
vector 161 DatabaseNetwork.user[48] ReadAccesses ETV
vector 162 DatabaseNetwork.user[27] ReadAccesses ETV
vector 163 DatabaseNetwork.user[43] ReadAccesses ETV
vector 164 DatabaseNetwork.user[22] ReadAccesses ETV
vector 165 DatabaseNetwork.user[17] ReadAccesses ETV
vector 166 DatabaseNetwork.user[14] ReadAccesses ETV
vector 167 DatabaseNetwork.user[44] ReadAccesses ETV
vector 168 DatabaseNetwork.user[3] ReadAccesses ETV
vector 169 DatabaseNetwork.user[3] WaitTime ETV
vector 170 DatabaseNetwork.user[4] ReadAccesses ETV
vector 171 DatabaseNetwork.user[23] ReadAccesses ETV
vector 172 DatabaseNetwork.user[30] ReadAccesses ETV
vector 173 DatabaseNetwork.user[5] ReadAccesses ETV
vector 174 DatabaseNetwork.user[5] WaitTime ETV
vector 175 DatabaseNetwork.user[7] WriteAccesses ETV
vector 176 DatabaseNetwork.user[39] WriteAccesses ETV
vector 177 DatabaseNetwork.user[39] WaitTime ETV
vector 178 DatabaseNetwork.user[5] WriteAccesses ETV
vector 179 DatabaseNetwork.user[16] WriteAccesses ETV
vector 180 DatabaseNetwork.user[40] ReadAccesses ETV
vector 181 DatabaseNetwork.user[38] ReadAccesses ETV
vector 182 DatabaseNetwork.user[39] ReadAccesses ETV
vector 183 DatabaseNetwork.user[21] WriteAccesses ETV
vector 184 DatabaseNetwork.user[26] WriteAccesses ETV
vector 185 DatabaseNetwork.user[37] WriteAccesses ETV
vector 186 DatabaseNetwork.user[12] ReadAccesses ETV
vector 187 DatabaseNetwork.user[19] ReadAccesses ETV
vector 188 DatabaseNetwork.user[47] ReadAccesses ETV
vector 189 DatabaseNetwork.user[11] ReadAccesses ETV
vector 190 DatabaseNetwork.user[3] WriteAccesses ETV
vector 191 DatabaseNetwork.user[15] ReadAccesses ETV
vector 192 DatabaseNetwork.user[33] WriteAccesses ETV
vector 193 DatabaseNetwork.user[8] ReadAccesses ETV
vector 194 DatabaseNetwork.user[31] WriteAccesses ETV
vector 195 DatabaseNetwork.user[36] ReadAccesses ETV
vector 196 DatabaseNetwork.user[13] ReadAccesses ETV
vector 197 DatabaseNetwork.user[41] ReadAccesses ETV
vector 198 DatabaseNetwork.user[32] ReadAccesses ETV
vector 199 DatabaseNetwork.user[29] ReadAccesses ETV
0	11492 21547 0 99649 0 9932.927474083972 518 0.056625783536242 157.20304923427 10006.208807422 402893.26309767
1	33039 19159 0 100081 0 9979.139243057969 461 0.018664294107461 122.01280899363 10025.605455799 409566.12142437
2	52198 20916 0 99989 0 9970.238967806425 504 0.0024718362899742 150.73560324583 10000.548683404 401499.39025163
3	73114 22785 0 100265 0 9999.263725786204 547 0.018943841829334 91.279584049867 10025.86522656 343437.50572752
4	95899 21718 0 99353 0 9900.498555097302 523 0.049455903636765 118.05179803301 10018.55035313 393550.39669757
5	117617 20841 0 100237 0 9996.399222080694 501 0.017546132970397 116.22240851721 10039.929382105 385457.23123021
6	138458 22080 0 100245 0 9997.689541776906 531 0.073674602056 131.87529829041 10021.469911355 381414.78679964
7	160538 18415 0 99697 0 9939.797897369352 443 0.10582816079208 148.48838426469 10021.614962344 471523.09670607
8	178953 21375 0 100261 0 9998.915782819052 514 0.16751857707535 141.22589137127 10001.241123877 382288.11962059
9	200328 21047 0 100257 0 9998.701543138899 506 0.02016903461426 153.46556581866 10025.285611441 395590.02178262
10	221375 21112 0 99979 0 9970.101723619769 496 0.047055497695613 119.65092685355 10044.205057334 409131.71980319
11	242487 20253 0 100181 0 9991.495262768673 476 0.052147712094589 114.53357926216 10025.083585915 398764.01017853
12	262740 20843 0 100129 0 9986.559743184256 490 0.012684928637456 150.96605673518 10020.295863253 416332.13696262
13	283583 22657 0 100249 0 9998.328098924259 532 0.012718570741296 131.35346484747 10015.380510129 407008.48396302
14	306240 21625 0 100185 0 9991.602498507115 508 0.0069814158665813 119.18441589879 10001.129429185 387238.88626248
15	327865 19319 0 99769 0 9947.415781943131 453 0.012844146684146 155.3571778504 10007.558872318 433610.79274123
16	347184 22258 0 100227 0 9996.077605884748 523 0.091820622516824 109.96072768389 10009.374660013 402457.44132457
17	369442 22076 0 100027 0 9974.707065910413 519 0.094450228484193 142.63700114426 10071.469551981 408097.99271339
18	391518 20731 0 100189 0 9992.226817053233 487 0.02536528629968 150.99100752428 10013.342841565 449604.59051933
19	412249 22058 0 99917 0 9962.153667666958 518 0.00086155713085032 113.42716858777 10024.231850576 380159.94035555
20	434307 22554 0 99999 0 9971.389811541834 530 0.019523854290852 224.92457505296 10012.664363101 402307.68965173
21	456861 21786 0 99205 0 9886.319119742597 512 0.0094158989867141 123.37634884236 10003.858704383 395114.2349049
22	478647 20435 0 100253 0 9998.582135737883 480 0.014565842081888 105.05990162126 10010.494078349 387155.85212914
23	499082 22729 0 100067 0 9978.05874470197 534 0.048762285785266 126.17444207581 10008.147015024 366397.6443844
24	521811 22597 0 100109 0 9984.549924683195 531 0.043774778892738 114.30939792652 10008.268988176 361109.18899964
25	544408 19811 0 100205 0 9993.418862581849 466 0.06050078910683 147.64279910535 10081.212489463 444328.81673853
26	564219 19503 0 100093 0 9980.820252132537 458 0.010646453215402 122.57922859247 10007.153679487 429428.03826394
27	583722 21928 0 100267 0 9999.263754906949 515 0.073095082842879 132.27956556964 10006.159257798 370226.90820085
28	605650 22162 0 99749 0 9945.435629090023 521 0.0081801516821684 121.68204503819 10001.012093327 389400.12361931
29	627812 22135 0 99885 0 9959.562361003887 520 0.022662767830387 90.619710162528 10004.727983794 331769.78618043
30	649947 22927 0 99997 0 9971.364413650606 538 0.035806480505401 136.01420278127 10024.714076827 386830.37291847
31	672874 19098 0 99861 0 9957.419682718928 448 0.052575016523552 139.01591300871 10004.327860182 431392.56836267
32	691972 20667 0 100281 0 9999.774479475306 485 0.044229649301406 142.21402372254 10005.924527578 419576.75715997
33	712639 20580 0 100275 0 9999.461540550831 483 0.011043327957972 160.93562251668 10008.21107782 410559.78002104
34	733219 20520 0 100241 0 9996.933914259099 482 0.029870937437245 162.71878424708 10009.994324053 453823.77126735
35	753739 21819 0 100141 0 9987.486700931705 513 0.0058600508818419 123.75980585203 10006.012428121 392197.56638007
36	775558 22724 0 100125 0 9986.258194270312 533 0.10006239907127 113.10869777625 10009.969646194 382319.81255864
37	798282 22931 0 100163 0 9989.605296540768 538 0.059429919619158 108.80127671558 10011.949763206 366660.799932
38	821213 20404 0 100209 0 9994.824486296927 479 0.0010222690663683 174.7784300953 10003.501406939 438999.96879844
39	841617 24659 0 100161 0 9989.567829358619 579 0.054728139822305 111.5976432057 10060.889475434 336104.25442294
40	866276 20661 0 99961 0 9969.151382130121 485 0.0081008638654811 111.36785385898 10029.173388171 384034.29617044
41	886937 20711 0 99893 0 9959.937508381475 486 0.024010128103432 157.16857213283 10029.829337091 399804.75752322
42	907648 20101 0 100197 0 9992.675023068651 472 0.0073829647269744 119.19648525193 10001.053335612 399807.94259026
43	927749 20774 0 100121 0 9985.870574597069 488 0.011194971020815 121.78881324489 10001.663736497 403365.54925144
44	948523 21430 0 100223 0 9996.007334899547 504 0.031937249492462 159.28852873875 10002.737922503 409269.86391278
45	969953 20811 0 100213 0 9995.634603940066 489 0.0077673227493106 134.84428963037 10022.736127541 407259.01484368
46	990764 20915 0 100233 0 9996.19008772065 491 0.0021999375062215 126.29177403322 10099.607142821 409929.51983029
47	1011679 20416 0 100273 0 9999.419735210691 480 0.09983516447497 114.26696726668 10030.597774126 428284.82819414
48	1032095 22595 0 100149 0 9987.896061227057 531 0.040275985539737 127.3031428991 10003.656764579 388268.5393684
49	1054690 21295 0 99801 0 9950.897307222117 500 0.030838470345357 97.361924594596 10005.992230917 383102.73009415
50	1075985 9901 1 99989 0.525364736932 9970.238967806425 346 1 1 346 346
51	1085886 22105 4 99992 0.625364736932 9970.338967806425 503 0.099999999998545 0.19678713200756 50.790976982507 5.158742700879
52	1107991 3897 5 100197 1.350304353086 9992.675023068651 136 1 1 136 136
53	1111888 20721 8 100200 1.450304353086 9992.775023068651 471 0.099999999998545 0.19663833542791 47.653605330792 4.8631810093337
54	1132609 9874 9 100209 1.65992651012 9994.824486296927 344 1 1 344 344
55	1142483 21065 12 100212 1.75992651012 9994.924486296927 478 0.099999999998545 0.19865570476304 48.152979284539 4.8773248900055
56	1163548 9533 13 100233 2.030267873818 9996.19008772065 333 1 1 333 333
57	1173081 21556 16 100236 2.130267873818 9996.29008772065 490 0.099999999998545 0.18294432489483 49.309741164972 4.9784067033932
58	1194637 9880 17 100213 2.470338621905 9995.634603940066 345 1 1 345 345
59	1204517 9301 19 99769 2.555543458514 9947.415781943131 324 1 1 324 324
60	1213818 21476 22 100218 2.570338621905 9995.734603940066 488 0.099999999998545 0.18971836878973 49.227142924432 4.9962378912787
61	1235294 19927 24 99772 2.655543458514 9947.515781943131 452 0.099999999998545 0.197955694813 45.56536825309 4.6185352542634
62	1255221 10357 25 99937 2.72005967253 9965.39395685869 361 1 1 361 361
63	1265578 23343 28 100152 2.82005967253 9987.996061227057 530 0.099999999998545 0.16004814337248 53.193190352935 5.3485295498486
64	1288921 5134 29 100057 2.890805482373 9977.040038797642 179 1 1 179 179
65	1294055 23355 32 100112 2.990805482373 9984.649924683195 530 0.099999999998545 0.19793922233566 53.340586510607 5.3931200912031
66	1317410 9137 33 100181 3.354807823798 9991.495262768673 319 1 1 319 319
67	1326547 20935 36 100184 3.454807823798 9991.595262768673 475 0.099999999998545 0.1520550786372 47.552055078638 4.7631207469395
68	1347482 5900 37 99263 3.895607906725 9891.532957536049 206 1 1 206 206
69	1353382 23674 40 100170 3.995607906725 9989.705296540768 537 0.099999999998545 0.19767882815904 54.029014342802 5.4584201164543
70	1377056 10148 41 100273 4.011186056206 9999.419735210691 354 1 1 354 354
71	1387204 5239 43 99601 4.077602339223 9927.378731333351 183 1 1 183 183
72	1392443 9347 45 100051 4.093357685528 9976.754996554127 326 1 1 326 326
73	1401790 21095 48 100278 4.111186056206 9999.519735210691 479 0.099999999998545 0.18474708903341 48.194846666221 4.8685087422527
74	1422885 22869 50 99752 4.177602339223 9945.535629090023 520 0.099999999998545 0.19159460214496 52.302570479947 5.2806113300419
75	1445754 20245 52 100084 4.193357685528 9979.239243057969 460 0.099999999998545 0.19411595504198 46.292926828589 4.6799659235416
76	1465999 9755 53 100129 4.579425894643 9986.559743184256 341 1 1 341 341
77	1475754 21525 56 100132 4.679425894643 9986.659743184256 489 0.099999999998545 0.17456647633708 49.074031060109 4.9345530171476
78	1497279 4023 61 99645 5.981550600929 9932.566283095372 140 1 1 140 140
79	1501302 19730 64 99864 6.081550600929 9957.519682718928 447 0.099999999998545 0.18152513413224 44.850913699898 4.5104333618108
80	1521032 10059 65 100109 6.107442676593 9984.549924683195 351 1 1 351 351
81	1531091 9284 69 100189 6.207479312421 9992.226817053233 324 1 1 324 324
82	1540375 21385 72 100192 6.307479312421 9992.326817053233 486 0.099999999998545 0.197772329432 48.882357001181 4.9382378745611
83	1561760 9893 77 100121 6.789862856486 9985.870574597069 345 1 1 345 345
84	1571653 21467 80 100124 6.889862856486 9985.970574597069 487 0.099999999998545 0.18270928093625 48.930670310358 4.9297014648469
85	1593120 10163 81 99893 7.048490079721 9959.937508381475 354 1 1 354 354
86	1603283 3873 83 100227 7.123634948101 9996.077605884748 135 1 1 135 135
87	1607156 21372 86 99896 7.148490079721 9960.037508381475 485 0.099999999998545 0.1861341216661 48.586134121678 4.8746459112508
88	1628528 23025 88 100232 7.223634948101 9996.177605884748 522 0.099999999998545 0.139238134465 52.278594298366 5.2378902396658
89	1651553 10274 89 100257 7.729033380436 9998.701543138899 358 1 1 358 358
90	1661827 22230 92 100260 7.829033380436 9998.801543138899 505 0.099999999998545 0.15640518539567 50.700409709418 5.0991937898348
91	1684057 4514 93 99525 7.92686363921 9918.451515868023 157 1 1 157 157
92	1688571 9714 95 99979 8.019548466481 9970.101723619769 339 1 1 339 339
93	1698285 21769 100 99986 8.119548466481 9970.201723619769 495 0.099999999998545 0.18735662400741 49.710331514285 5.0056475411531
94	1720054 10013 105 100141 10.461602504546 9987.486700931705 350 1 1 350 350
95	1730067 22558 108 100144 10.561602504546 9987.586700931705 512 0.099999999998545 0.1621008912025 51.317332143776 5.1488775107869
96	1752625 9937 109 99011 10.907230344359 9869.367626332669 346 1 1 346 346
97	1762562 22629 114 100264 11.007230344359 9999.015782819052 513 0.099999999998545 0.18762652585247 51.616339262908 5.214869454229
98	1785191 9966 119 100201 11.176603522625 9993.006902742529 348 1 1 348 348
99	1795157 22150 126 100230 11.276603522625 9996.107334899547 503 0.099999999998545 0.15281392134284 50.442954886707 5.0642889135137
100	1817307 11234 129 100245 11.430006362468 9997.689541776906 378 1 1 378 378
101	1828541 10926 131 99649 11.453839792544 9932.927474083972 368 1 1 368 368
102	1839467 23902 134 100248 11.530006362468 9997.789541776906 530 0.099999999998545 0.19647539534799 53.575216115412 5.4540908886206
103	1863369 23322 136 99652 11.553839792544 9933.027474083972 517 0.099999999998545 0.19868106383996 52.370766293068 5.3562236768307
104	1886691 4190 145 96935 13.262026102764 9649.756575950324 141 1 1 141 141
105	1890881 10842 147 99703 13.278600377286 9940.672531083648 366 1 1 366 366
106	1901723 19898 150 99700 13.362026102764 9939.897897369352 442 0.099999999998545 0.19869085579103 44.50687298544 4.5057768349528
107	1921621 23311 152 100032 13.378600377286 9974.807065910413 518 0.099999999998545 0.1741133929736 52.127970753106 5.2648481413825
108	1944932 4299 153 99301 13.633735666083 9895.300750928943 145 1 1 145 145
109	1949231 9948 155 99753 13.635828752389 9945.944086682724 335 1 1 335 335
110	1959179 21669 158 100244 13.733735666083 9997.033914259099 481 0.099999999998545 0.18842278344528 48.580300885342 4.9370935081946
111	1980848 22488 160 99806 13.735828752389 9950.997307222117 499 0.099999999998545 0.19290766977201 50.18772938587 5.0678882272945
112	2003336 9485 161 100205 13.805472967174 9993.418862581849 320 1 1 320 320
113	2012821 20922 164 100208 13.905472967174 9993.518862581849 465 0.099999999998545 0.17687135630331 46.746050590398 4.7148829522504
114	2033743 10208 165 99961 14.073895784098 9969.151382130121 344 1 1 344 344
115	2043951 21818 168 99968 14.173895784098 9969.251382130121 484 0.099999999998545 0.14901313374799 48.463188009975 4.8552408163908
116	2065769 4227 169 99725 14.413579226361 9942.882067345567 143 1 1 143 143
117	2069996 20568 172 100096 14.513579226361 9980.920252132537 457 0.099999999998545 0.18501630419814 45.953515962325 4.6386658831486
118	2090564 9567 173 100253 15.063978170199 9998.582135737883 322 1 1 322 322
119	2100131 21590 176 100256 15.163978170199 9998.682135737883 479 0.099999999998545 0.19374535822135 48.421448415124 4.9360529433635
120	2121721 9996 177 99749 15.234059012829 9945.435629090023 337 1 1 337 337
121	2131717 4395 181 99971 15.802296588066 9969.982166966912 148 1 1 148 148
122	2136112 21740 184 100280 15.902296588066 9999.561540550831 482 0.099999999998545 0.15687082671047 48.30683830899 4.8452628408822
123	2157852 11022 185 99353 15.955158478006 9900.498555097302 372 1 1 372 372
124	2168874 23470 188 99356 16.055158478006 9900.598555097302 522 0.099999999998545 0.18278037475011 52.525395958826 5.3033251678345
125	2192344 4811 189 99605 16.476806941612 9928.031713597551 162 1 1 162 162
126	2197155 10889 201 100073 17.676324608463 9978.557635361302 367 1 1 367 367
127	2208044 23180 204 100272 17.776324608463 9999.363754906949 514 0.099999999998545 0.19021013346446 51.532957525269 5.1756433441488
128	2231224 9961 205 100241 18.845088320405 9996.933914259099 336 1 1 336 336
129	2241185 10585 209 100185 19.313347302846 9991.602498507115 357 1 1 357 357
130	2251770 10730 211 99999 19.411445162826 9971.389811541834 362 1 1 362 362
131	2262500 22832 214 100188 19.413347302846 9991.702498507115 507 0.099999999998545 0.19457787212218 51.170364699094 5.1998352909308
132	2285332 23790 216 100004 19.511445162826 9971.489811541834 529 0.099999999998545 0.18258544510809 53.076009627518 5.3370980233774
133	2309122 10323 221 99917 20.033581114353 9962.153667666958 348 1 1 348 348
134	2319445 23294 224 99920 20.133581114353 9962.253667666958 517 0.099999999998545 0.16229800878273 51.800172421686 5.1953499973879
135	2342739 3959 225 100081 20.338372644704 9979.139243057969 134 1 1 134 134
136	2346698 4638 229 98885 21.363724105929 9860.072283101604 157 1 1 157 157
137	2351336 4497 239 99425 22.149655882649 9909.886963936572 152 1 1 152 152
138	2355833 11117 253 99975 22.978710234746 9970.071568847404 375 1 1 375 375
139	2366950 24007 256 100072 23.078710234746 9978.15874470197 533 0.099999999998545 0.19597907031084 53.465221906882 5.375018624551
140	2390957 4239 257 99513 23.712060870425 9917.163960800315 143 1 1 143 143
141	2395196 10671 261 100249 24.003778731456 9998.328098924259 360 1 1 360 360
142	2405867 4431 263 97905 24.068557264148 9754.067571453586 149 1 1 149 149
143	2410298 23937 266 100252 24.103778731456 9998.428098924259 531 0.099999999998545 0.18972187648797 53.493976117348 5.418080453542
144	2434235 10731 277 99761 25.44176628254 9946.912561086811 362 1 1 362 362
145	2444966 23382 280 99888 25.54176628254 9959.662361003887 519 0.099999999998545 0.18298513683658 52.18564815875 5.2664781149848
146	2468348 4621 281 97575 26.163441555213 9725.415794481924 156 1 1 156 156
147	2472969 4355 297 100165 29.304941560739 9989.650072549477 147 1 1 147 147
148	2477324 9945 313 99921 30.526846435108 9962.320073899253 335 1 1 335 335
149	2487269 11462 317 99447 30.773545855284 9910.67767347111 386 1 1 386 386
150	2498731 24203 320 100002 30.873545855284 9971.464413650606 537 0.099999999998545 0.18113395209275 53.973239921495 5.4436463487881
151	2522934 4824 327 99205 34.099901882417 9886.319119742597 163 1 1 163 163
152	2527758 23031 332 99208 34.199901882417 9886.419119742597 511 0.099999999998545 0.18668212891498 51.652694392478 5.2569554965525
153	2550789 4872 335 99801 34.283441333888 9950.897307222117 164 1 1 164 164
154	2555661 4285 361 97573 36.296005936774 9725.336766919897 145 1 1 145 145
155	2559946 11042 381 99825 37.489107734394 9955.148458435858 372 1 1 372 372
156	2570988 24008 384 100128 37.589107734394 9986.358194270312 532 0.099999999998545 0.18545178648128 53.387878441089 5.3680624040059
157	2594996 10338 391 100105 38.479588623406 9984.443524385322 348 1 1 348 348
158	2605334 21855 400 100284 38.579588623406 9999.874479475306 484 0.099999999998545 0.19786851954768 48.82646994298 4.9586547706122
159	2627189 4804 413 98741 40.378607689806 9842.499084239545 162 1 1 162 162
160	2631993 4957 417 98613 42.244369443023 9825.586746728825 167 1 1 167 167
161	2636950 5000 425 100149 43.619958418881 9987.896061227057 169 1 1 169 169
162	2641950 4374 429 100267 44.073164629014 9999.263754906949 147 1 1 147 147
163	2646324 4208 449 99701 45.925627308845 9940.615392478921 142 1 1 142 142
164	2650532 4661 461 100215 47.111799683232 9995.704956080998 157 1 1 157 157
165	2655193 4514 465 100027 47.843687074726 9974.707065910413 152 1 1 152 152
166	2659707 4445 485 100065 48.689584082514 9978.000551195297 150 1 1 150 150
167	2664152 4594 517 100223 53.300576545695 9996.007334899547 155 1 1 155 155
168	2668746 4928 525 99889 53.63036520913 9959.754023634172 166 1 1 166 166
169	2673674 24656 528 100270 53.73036520913 9999.363725786204 546 0.099999999998545 0.16887055027473 55.078785240215 5.5820411022807
170	2698330 4444 549 98685 56.020537687899 9835.705517571273 150 1 1 150 150
171	2702774 4686 571 100067 58.028296207933 9978.05874470197 158 1 1 158 158
172	2707460 4490 581 99997 58.473898172894 9971.364413650606 151 1 1 151 151
173	2711950 5254 597 100193 59.026887453549 9992.503277809286 177 1 1 177 177
174	2717204 22572 600 100240 59.126887453549 9996.499222080694 500 0.099999999998545 0.18419288575569 50.541635705454 5.144115403314
175	2739776 8934 613 99697 60.675623529069 9939.797897369352 301 1 1 301 301
176	2748710 12088 705 100161 69.887585606519 9989.567829358619 407 1 1 407 407
177	2760798 26087 710 100168 69.987585606519 9989.667829358619 578 0.099999999998545 0.17416849295751 58.093858832238 5.854595252164
178	2786885 9595 717 100237 70.504676931848 9996.399222080694 323 1 1 323 323
179	2796480 11467 727 100177 71.658634817503 9991.32427818042 387 1 1 387 387