file 2910312 1767629703                                         
version 3
run Uniform-15-20260105-17:15:03-28078
attr configname Uniform
attr datetime 20260105-17:15:03
attr datetimef 20260105-171503
attr experiment Uniform
attr inifile omnetpp.ini
attr iterationvars "$N=50, $p=0.8"
attr iterationvarsd N=50/p=0.8
attr iterationvarsf N=50,p=0.8-
attr measurement "$N=50, $p=0.8"
attr network progetto.DatabaseNetwork
attr processid 28078
attr repetition 0
attr replication #0
attr resultdir results
attr runnumber 15
attr seedset 0
itervar N 50
itervar p 0.8
config description "Uniform distribution - varia N e p"
config *.user[*].tableDistribution "\"uniform\""
config *.numUsers 50
config *.user[*].readProbability 0.8
config network progetto.DatabaseNetwork
config sim-time-limit 10000s
config cpu-time-limit 3600s
config repeat 5
config seed-set 0
config output-vector-file "results/Uniform-$N=50, $p=0.8-0.vec"
config output-scalar-file "results/Uniform-$N=50, $p=0.8-0.sca"
config result-dir results
config **.vector-recording true
config **.scalar-recording true
config *.numTables 20
config *.user[*].lambda 0.05
config *.user[*].serviceTime 0.1s

vector 0 DatabaseNetwork.user[0] AccessInterval ETV
vector 1 DatabaseNetwork.user[1] AccessInterval ETV
vector 2 DatabaseNetwork.user[2] AccessInterval ETV
vector 3 DatabaseNetwork.user[3] AccessInterval ETV
vector 4 DatabaseNetwork.user[4] AccessInterval ETV
vector 5 DatabaseNetwork.user[5] AccessInterval ETV
vector 6 DatabaseNetwork.user[6] AccessInterval ETV
vector 7 DatabaseNetwork.user[7] AccessInterval ETV
vector 8 DatabaseNetwork.user[8] AccessInterval ETV
vector 9 DatabaseNetwork.user[9] AccessInterval ETV
vector 10 DatabaseNetwork.user[10] AccessInterval ETV
vector 11 DatabaseNetwork.user[11] AccessInterval ETV
vector 12 DatabaseNetwork.user[12] AccessInterval ETV
vector 13 DatabaseNetwork.user[13] AccessInterval ETV
vector 14 DatabaseNetwork.user[14] AccessInterval ETV
vector 15 DatabaseNetwork.user[15] AccessInterval ETV
vector 16 DatabaseNetwork.user[16] AccessInterval ETV
vector 17 DatabaseNetwork.user[17] AccessInterval ETV
vector 18 DatabaseNetwork.user[18] AccessInterval ETV
vector 19 DatabaseNetwork.user[19] AccessInterval ETV
vector 20 DatabaseNetwork.user[20] AccessInterval ETV
vector 21 DatabaseNetwork.user[21] AccessInterval ETV
vector 22 DatabaseNetwork.user[22] AccessInterval ETV
vector 23 DatabaseNetwork.user[23] AccessInterval ETV
vector 24 DatabaseNetwork.user[24] AccessInterval ETV
vector 25 DatabaseNetwork.user[25] AccessInterval ETV
vector 26 DatabaseNetwork.user[26] AccessInterval ETV
vector 27 DatabaseNetwork.user[27] AccessInterval ETV
vector 28 DatabaseNetwork.user[28] AccessInterval ETV
vector 29 DatabaseNetwork.user[29] AccessInterval ETV
vector 30 DatabaseNetwork.user[30] AccessInterval ETV
vector 31 DatabaseNetwork.user[31] AccessInterval ETV
vector 32 DatabaseNetwork.user[32] AccessInterval ETV
vector 33 DatabaseNetwork.user[33] AccessInterval ETV
vector 34 DatabaseNetwork.user[34] AccessInterval ETV
vector 35 DatabaseNetwork.user[35] AccessInterval ETV
vector 36 DatabaseNetwork.user[36] AccessInterval ETV
vector 37 DatabaseNetwork.user[37] AccessInterval ETV
vector 38 DatabaseNetwork.user[38] AccessInterval ETV
vector 39 DatabaseNetwork.user[39] AccessInterval ETV
vector 40 DatabaseNetwork.user[40] AccessInterval ETV
vector 41 DatabaseNetwork.user[41] AccessInterval ETV
vector 42 DatabaseNetwork.user[42] AccessInterval ETV
vector 43 DatabaseNetwork.user[43] AccessInterval ETV
vector 44 DatabaseNetwork.user[44] AccessInterval ETV
vector 45 DatabaseNetwork.user[45] AccessInterval ETV
vector 46 DatabaseNetwork.user[46] AccessInterval ETV
vector 47 DatabaseNetwork.user[47] AccessInterval ETV
vector 48 DatabaseNetwork.user[48] AccessInterval ETV
vector 49 DatabaseNetwork.user[49] AccessInterval ETV
vector 50 DatabaseNetwork.user[32] ReadAccesses ETV
vector 51 DatabaseNetwork.user[32] WaitTime ETV
vector 52 DatabaseNetwork.user[15] ReadAccesses ETV
vector 53 DatabaseNetwork.user[15] WaitTime ETV
vector 54 DatabaseNetwork.user[28] ReadAccesses ETV
vector 55 DatabaseNetwork.user[28] WaitTime ETV
vector 56 DatabaseNetwork.user[30] ReadAccesses ETV
vector 57 DatabaseNetwork.user[30] WaitTime ETV
vector 58 DatabaseNetwork.user[48] ReadAccesses ETV
vector 59 DatabaseNetwork.user[48] WaitTime ETV
vector 60 DatabaseNetwork.user[37] ReadAccesses ETV
vector 61 DatabaseNetwork.user[37] WaitTime ETV
vector 62 DatabaseNetwork.user[15] WriteAccesses ETV
vector 63 DatabaseNetwork.user[17] WriteAccesses ETV
vector 64 DatabaseNetwork.user[17] WaitTime ETV
vector 65 DatabaseNetwork.user[13] ReadAccesses ETV
vector 66 DatabaseNetwork.user[13] WaitTime ETV
vector 67 DatabaseNetwork.user[29] ReadAccesses ETV
vector 68 DatabaseNetwork.user[29] WaitTime ETV
vector 69 DatabaseNetwork.user[29] WriteAccesses ETV
vector 70 DatabaseNetwork.user[33] ReadAccesses ETV
vector 71 DatabaseNetwork.user[33] WaitTime ETV
vector 72 DatabaseNetwork.user[18] WriteAccesses ETV
vector 73 DatabaseNetwork.user[11] ReadAccesses ETV
vector 74 DatabaseNetwork.user[18] WaitTime ETV
vector 75 DatabaseNetwork.user[11] WaitTime ETV
vector 76 DatabaseNetwork.user[25] ReadAccesses ETV
vector 77 DatabaseNetwork.user[25] WaitTime ETV
vector 78 DatabaseNetwork.user[8] WriteAccesses ETV
vector 79 DatabaseNetwork.user[8] WaitTime ETV
vector 80 DatabaseNetwork.user[12] ReadAccesses ETV
vector 81 DatabaseNetwork.user[12] WaitTime ETV
vector 82 DatabaseNetwork.user[44] WriteAccesses ETV
vector 83 DatabaseNetwork.user[32] WriteAccesses ETV
vector 84 DatabaseNetwork.user[44] WaitTime ETV
vector 85 DatabaseNetwork.user[41] ReadAccesses ETV
vector 86 DatabaseNetwork.user[41] WaitTime ETV
vector 87 DatabaseNetwork.user[19] ReadAccesses ETV
vector 88 DatabaseNetwork.user[23] ReadAccesses ETV
vector 89 DatabaseNetwork.user[19] WaitTime ETV
vector 90 DatabaseNetwork.user[23] WaitTime ETV
vector 91 DatabaseNetwork.user[33] WriteAccesses ETV
vector 92 DatabaseNetwork.user[45] WriteAccesses ETV
vector 93 DatabaseNetwork.user[45] WaitTime ETV
vector 94 DatabaseNetwork.user[22] ReadAccesses ETV
vector 95 DatabaseNetwork.user[22] WaitTime ETV
vector 96 DatabaseNetwork.user[6] WriteAccesses ETV
vector 97 DatabaseNetwork.user[6] WaitTime ETV
vector 98 DatabaseNetwork.user[0] ReadAccesses ETV
vector 99 DatabaseNetwork.user[0] WaitTime ETV
vector 100 DatabaseNetwork.user[24] ReadAccesses ETV
vector 101 DatabaseNetwork.user[24] WaitTime ETV
vector 102 DatabaseNetwork.user[1] WriteAccesses ETV
vector 103 DatabaseNetwork.user[1] WaitTime ETV
vector 104 DatabaseNetwork.user[4] ReadAccesses ETV
vector 105 DatabaseNetwork.user[4] WaitTime ETV
vector 106 DatabaseNetwork.user[9] ReadAccesses ETV
vector 107 DatabaseNetwork.user[9] WaitTime ETV
vector 108 DatabaseNetwork.user[8] ReadAccesses ETV
vector 109 DatabaseNetwork.user[10] ReadAccesses ETV
vector 110 DatabaseNetwork.user[10] WaitTime ETV
vector 111 DatabaseNetwork.user[45] ReadAccesses ETV
vector 112 DatabaseNetwork.user[31] ReadAccesses ETV
vector 113 DatabaseNetwork.user[31] WaitTime ETV
vector 114 DatabaseNetwork.user[12] WriteAccesses ETV
vector 115 DatabaseNetwork.user[6] ReadAccesses ETV
vector 116 DatabaseNetwork.user[47] WriteAccesses ETV
vector 117 DatabaseNetwork.user[47] WaitTime ETV
vector 118 DatabaseNetwork.user[1] ReadAccesses ETV
vector 119 DatabaseNetwork.user[2] ReadAccesses ETV
vector 120 DatabaseNetwork.user[2] WaitTime ETV
vector 121 DatabaseNetwork.user[49] ReadAccesses ETV
vector 122 DatabaseNetwork.user[49] WaitTime ETV
vector 123 DatabaseNetwork.user[17] ReadAccesses ETV
vector 124 DatabaseNetwork.user[47] ReadAccesses ETV
vector 125 DatabaseNetwork.user[4] WriteAccesses ETV
vector 126 DatabaseNetwork.user[36] WriteAccesses ETV
vector 127 DatabaseNetwork.user[36] WaitTime ETV
vector 128 DatabaseNetwork.user[46] ReadAccesses ETV
vector 129 DatabaseNetwork.user[46] WaitTime ETV
vector 130 DatabaseNetwork.user[18] ReadAccesses ETV
vector 131 DatabaseNetwork.user[20] ReadAccesses ETV
vector 132 DatabaseNetwork.user[20] WaitTime ETV
vector 133 DatabaseNetwork.user[19] WriteAccesses ETV
vector 134 DatabaseNetwork.user[42] ReadAccesses ETV
vector 135 DatabaseNetwork.user[42] WaitTime ETV
vector 136 DatabaseNetwork.user[43] WriteAccesses ETV
vector 137 DatabaseNetwork.user[11] WriteAccesses ETV
vector 138 DatabaseNetwork.user[43] WaitTime ETV
vector 139 DatabaseNetwork.user[25] WriteAccesses ETV
vector 140 DatabaseNetwork.user[21] ReadAccesses ETV
vector 141 DatabaseNetwork.user[21] WaitTime ETV
vector 142 DatabaseNetwork.user[44] ReadAccesses ETV
vector 143 DatabaseNetwork.user[34] ReadAccesses ETV
vector 144 DatabaseNetwork.user[34] WaitTime ETV
vector 145 DatabaseNetwork.user[27] ReadAccesses ETV
vector 146 DatabaseNetwork.user[27] WaitTime ETV
vector 147 DatabaseNetwork.user[34] WriteAccesses ETV
vector 148 DatabaseNetwork.user[3] ReadAccesses ETV
vector 149 DatabaseNetwork.user[3] WaitTime ETV
vector 150 DatabaseNetwork.user[7] ReadAccesses ETV
vector 151 DatabaseNetwork.user[24] WriteAccesses ETV
vector 152 DatabaseNetwork.user[7] WaitTime ETV
vector 153 DatabaseNetwork.user[48] WriteAccesses ETV
vector 154 DatabaseNetwork.user[5] WriteAccesses ETV
vector 155 DatabaseNetwork.user[5] WaitTime ETV
vector 156 DatabaseNetwork.user[38] ReadAccesses ETV
vector 157 DatabaseNetwork.user[39] ReadAccesses ETV
vector 158 DatabaseNetwork.user[38] WaitTime ETV
vector 159 DatabaseNetwork.user[39] WaitTime ETV
vector 160 DatabaseNetwork.user[31] WriteAccesses ETV
vector 161 DatabaseNetwork.user[42] WriteAccesses ETV
vector 162 DatabaseNetwork.user[0] WriteAccesses ETV
vector 163 DatabaseNetwork.user[14] ReadAccesses ETV
vector 164 DatabaseNetwork.user[27] WriteAccesses ETV
vector 165 DatabaseNetwork.user[14] WaitTime ETV
vector 166 DatabaseNetwork.user[5] ReadAccesses ETV
vector 167 DatabaseNetwork.user[14] WriteAccesses ETV
vector 168 DatabaseNetwork.user[26] ReadAccesses ETV
vector 169 DatabaseNetwork.user[26] WaitTime ETV
vector 170 DatabaseNetwork.user[3] WriteAccesses ETV
vector 171 DatabaseNetwork.user[37] WriteAccesses ETV
vector 172 DatabaseNetwork.user[26] WriteAccesses ETV
vector 173 DatabaseNetwork.user[35] ReadAccesses ETV
vector 174 DatabaseNetwork.user[35] WaitTime ETV
vector 175 DatabaseNetwork.user[20] WriteAccesses ETV
vector 176 DatabaseNetwork.user[16] WriteAccesses ETV
vector 177 DatabaseNetwork.user[16] WaitTime ETV
vector 178 DatabaseNetwork.user[30] WriteAccesses ETV
vector 179 DatabaseNetwork.user[43] ReadAccesses ETV
vector 180 DatabaseNetwork.user[16] ReadAccesses ETV
vector 181 DatabaseNetwork.user[36] ReadAccesses ETV
vector 182 DatabaseNetwork.user[10] WriteAccesses ETV
vector 183 DatabaseNetwork.user[40] ReadAccesses ETV
vector 184 DatabaseNetwork.user[40] WaitTime ETV
vector 185 DatabaseNetwork.user[40] WriteAccesses ETV
vector 186 DatabaseNetwork.user[39] WriteAccesses ETV
vector 187 DatabaseNetwork.user[41] WriteAccesses ETV
vector 188 DatabaseNetwork.user[28] WriteAccesses ETV
vector 189 DatabaseNetwork.user[21] WriteAccesses ETV
vector 190 DatabaseNetwork.user[2] WriteAccesses ETV
vector 191 DatabaseNetwork.user[13] WriteAccesses ETV
vector 192 DatabaseNetwork.user[46] WriteAccesses ETV
vector 193 DatabaseNetwork.user[38] WriteAccesses ETV
vector 194 DatabaseNetwork.user[49] WriteAccesses ETV
vector 195 DatabaseNetwork.user[7] WriteAccesses ETV
vector 196 DatabaseNetwork.user[9] WriteAccesses ETV
vector 197 DatabaseNetwork.user[23] WriteAccesses ETV
vector 198 DatabaseNetwork.user[35] WriteAccesses ETV
vector 199 DatabaseNetwork.user[22] WriteAccesses ETV
0	11494 19780 0 99485 0 9987.495052803179 476 0.016413200170964 124.54864335957 10021.119942689 406996.18813526
1	31274 20323 0 99593 0 9998.955488862389 489 0.049754204801472 110.99466034307 10002.13144862 387300.2383803
2	51597 20336 0 99421 0 9981.502214081529 489 0.028830087686954 157.52358849105 10139.025802573 423297.11663605
3	71933 21833 0 99537 0 9994.14053732436 525 0.035479194452088 123.58234988483 10080.214275709 379431.47704645
4	93766 20964 0 99589 0 9998.007629130817 505 0.013835790987459 191.6704229798 10000.309377592 383397.894566
5	114730 21707 0 99599 0 9999.370351842178 522 0.067452309610778 157.9275382639 10001.44208367 396148.08005017
6	136437 22272 0 99375 0 9976.435411238788 535 0.0012114359011624 154.14098727246 10021.790526692 381005.53939037
7	158709 19656 0 99317 0 9967.649589197114 473 0.11568352757895 105.29951356857 10059.987340644 404964.364252
8	178365 20917 0 99329 0 9969.098402770771 503 0.017173243165545 99.657103006607 10028.983289844 384308.38615481
9	199282 20560 0 99585 0 9996.997804239498 494 0.0080906897054133 188.35988661658 10039.205255291 406967.06491475
10	219842 21001 0 99493 0 9988.000707950127 493 0.060189987758347 153.32647952234 10041.628443462 423755.58114015
11	240843 21745 0 99253 0 9958.433170559203 511 0.10406265614731 148.33836937771 10020.414220432 386771.46017848
12	262588 21372 0 99521 0 9990.44101473693 503 0.014344357907685 135.51779055631 10008.763957363 391138.44520177
13	283960 21968 0 99597 0 9999.35900640681 516 0.048639406255149 183.67130023346 10044.34798183 413514.27710047
14	305928 19952 0 99503 0 9988.657471759243 469 0.042487334426532 125.50620882393 10000.864103724 441122.03144833
15	325880 22547 0 99605 0 9999.493834532098 530 0.055926430144227 133.40012538787 10068.204870689 363595.39283036
16	348427 21051 0 99561 0 9995.700736601809 494 0.018160143006007 183.50137997266 10019.525365135 426191.57858518
17	369478 21089 0 99425 0 9981.832897016754 495 0.061052474213139 118.69172300774 10010.443912259 389332.88423006
18	390567 21231 0 99545 0 9994.605989530286 498 0.13578733751915 140.4649420935 10022.909055371 405782.82790975
19	411798 21744 0 99555 0 9995.238203395319 511 0.032654957791945 159.82075323883 10011.94540078 422916.27449325
20	433542 21282 0 99409 0 9979.708414232039 500 0.1230875273802 140.71934260474 10000.352974213 420469.59236081
21	454824 21082 0 99481 0 9987.388886644512 495 0.17124185081144 144.95121498272 10003.010462581 410504.71484754
22	475906 20465 0 99169 0 9948.850376519451 480 0.033300114077984 130.40331372053 10001.072284678 394514.71142006
23	496371 22041 0 99461 0 9985.5730929031 518 0.043612164345251 112.3227507657 10005.413889997 389344.41654253
24	518412 20108 0 99225 0 9956.615008458243 473 0.20229351249236 111.44850568599 10046.135897884 405342.74046547
25	538520 21454 0 99541 0 9994.317574240484 504 0.018322723193423 117.86147133819 10013.916091102 377882.65957879
26	559974 20221 0 99229 0 9956.973715617366 475 0.0075889479196272 170.48887033836 10020.975061049 418406.29966059
27	580195 20092 0 99449 0 9985.101207200419 471 0.0037346262254305 123.48394145914 10011.784929163 428220.28246636
28	600287 22099 0 99209 0 9953.372866173734 519 0.00048418184084518 113.06336438849 10000.557281001 376135.56264503
29	622386 21409 0 99549 0 9994.9871546858 503 0.020558602831469 214.44649959218 10011.946088445 460983.73194506
30	643795 22291 0 99525 0 9991.805240100117 524 0.00092572346664555 285.62370611772 10001.933517949 423170.92866739
31	666086 21589 0 99469 0 9985.926842283059 508 0.043289291234851 116.63805924798 10010.319134876 388534.19431179
32	687675 21861 0 99417 0 9980.73368459776 513 0.13692770459229 109.59679672754 10045.391772159 390512.92505563
33	709536 22232 0 99565 0 9996.155113438754 523 0.078752473072778 128.65614635545 10022.344584763 379768.16429065
34	731768 21607 0 98725 0 9908.166267834862 507 0.035337592495223 171.79665261115 10019.727183189 436100.11216318
35	753375 20338 0 99361 0 9974.4525015903 477 0.0033290940215248 194.52080564538 10005.268445184 436980.56230487
36	773713 21784 0 99609 0 9999.69586610793 512 0.029059072502641 118.60961196785 10016.963970836 369928.03596584
37	795497 20484 0 99571 0 9996.314414968433 482 0.03642302007998 170.50320494408 10015.671519044 423537.44302102
38	815981 22986 0 99529 0 9993.197736945786 540 0.00040060310428949 108.50234172984 10012.896245081 358609.27241622
39	838967 20258 0 99405 0 9979.09114251371 476 0.025953155093071 169.12318948833 10034.347221296 427304.53764922
40	859225 20939 0 99343 0 9970.405797778363 492 0.020448281734443 167.65305297558 10026.345565334 411655.14858882
41	880164 21077 0 99401 0 9978.313875652132 495 0.010903305967085 99.339906285474 10017.699749432 371728.52142536
42	901241 21300 0 99613 0 9999.817618955375 500 0.052682680956729 129.3133209829 10009.511437035 395783.00552747
43	922541 19381 0 99579 0 9996.680827398588 456 0.012667539140039 178.21895212618 10046.374175198 436783.39521692
44	941922 21553 0 99185 0 9949.993833585181 506 8.0219630844018e-05 109.47785575781 10044.487456624 381264.17201973
45	963475 20136 0 99135 0 9946.850441038629 473 0.1339056499095 197.65967260175 10000.144087937 428004.83245644
46	983611 21059 0 99295 0 9964.801263414536 495 0.0011070379028486 174.6172314558 10008.332391755 421648.60783446
47	1004670 21105 0 99473 0 9986.354156801246 496 0.019137960507441 198.30021311223 10010.272674305 441758.14244864
48	1025775 21299 0 99357 0 9973.300042153056 501 0.0309288223188 143.60777491916 10066.900083898 413983.66387987
49	1047074 21682 0 99577 0 9996.60579985425 509 0.016150330009432 243.41944211079 10058.329828768 435926.41605016
50	1068756 11606 1 99417 0.408511767981 9980.73368459776 404 1 1 404 404
51	1080362 22606 4 99420 0.508511767981 9980.83368459776 512 0.099999999998545 0.10000000000036 51.199999999995 5.119999999999
52	1102968 12110 5 99605 1.167693381862 9999.493834532098 423 1 1 423 423
53	1115078 23288 8 99608 1.267693381862 9999.593834532098 529 0.099999999998545 0.17881048176969 52.978810481768 5.3119731883903
54	1138366 11730 9 99209 1.473707109302 9953.372866173734 409 1 1 409 409
55	1150096 22864 12 99212 1.573707109302 9953.472866173734 518 0.099999999998545 0.17196735571997 51.929439050798 5.2143701061853
56	1172960 12029 13 99525 1.823220522486 9991.805240100117 420 1 1 420 420
57	1184989 22986 16 99528 1.923220522486 9991.905240100117 523 0.099999999998545 0.16515391293706 52.409002425374 5.2579682094868
58	1207975 11698 17 99357 2.517488188761 9973.300042153056 409 1 1 409 409
59	1219673 21953 20 99360 2.617488188761 9973.400042153056 500 0.099999999998545 0.17292800926271 50.10343670328 5.0269366156012
60	1241626 10842 25 99571 3.0246170733 9996.314414968433 379 1 1 379 379
61	1252468 21192 28 99576 3.1246170733 9996.414414968433 481 0.099999999998545 0.16729124286201 48.167291242867 4.8279863599393
62	1273660 3040 29 95173 3.406616594515 9567.699593368825 106 1 1 106 106
63	1276700 2946 41 98487 6.367122816836 9884.668345300723 103 1 1 103 103
64	1279646 21793 44 99428 6.467122816836 9981.932897016754 494 0.099999999998545 0.15816551261969 49.458165512614 4.9550163293812
65	1301439 11771 49 99597 7.06318278275 9999.35900640681 411 1 1 411 411
66	1313210 22688 52 99602 7.16318278275 9999.45900640681 515 0.099999999998545 0.18498701429417 51.649475180009 5.1892385825319
67	1335898 11860 55 99549 8.231559924852 9994.9871546858 414 1 1 414 414
68	1347758 22094 60 99552 8.331559924852 9995.0871546858 502 0.099999999998545 0.10000000000036 50.200000000006 5.0200000000012
69	1369852 2516 61 99387 9.015223053114 9977.001311138999 88 1 1 88 88
70	1372368 11768 65 99565 9.184962745104 9996.155113438754 411 1 1 411 411
71	1384136 22939 68 99570 9.284962745104 9996.255113438754 522 0.099999999998545 0.18732504867239 52.426159192546 5.2830320641793
72	1407075 2750 69 99201 9.672042098969 9952.01763218414 96 1 1 96 96
73	1409825 12088 71 99253 9.702563274433 9958.433170559203 422 1 1 422 422
74	1421913 21948 74 99548 9.772042098969 9994.705989530286 497 0.099999999998545 0.173697612654 49.773697612643 4.9901708606395
75	1443861 22441 76 99256 9.802563274433 9958.533170559203 510 0.099999999998545 0.10000000000036 51.000000000001 5.1000000000001
76	1466302 11232 81 99541 9.977440180318 9994.317574240484 392 1 1 392 392
77	1477534 22129 84 99544 10.077440180318 9994.417574240484 503 0.099999999998545 0.136877747287 50.336877747301 5.0387355177052
78	1499663 2800 89 99179 11.020969733406 9949.828457414831 98 1 1 98 98
79	1502463 22135 92 99332 11.120969733406 9969.198402770771 502 0.099999999998545 0.159194144916 50.297062517556 5.04435046395
80	1524598 11325 93 99445 11.51038393766 9984.955570071556 396 1 1 396 396
81	1535923 22081 96 99524 11.61038393766 9990.54101473693 502 0.099999999998545 0.15135801637098 50.251358016367 5.032909249119
82	1558004 2841 97 99015 12.378589192534 9939.193483028624 99 1 1 99 99
83	1560845 3108 99 99233 12.413475279006 9957.21291908738 108 1 1 108 108
84	1563953 22266 102 99188 12.478589192534 9950.093833585181 505 0.099999999998545 0.16246026286444 50.649040352424 5.0875698111419
85	1586219 11626 105 99401 12.834183453562 9978.313875652132 406 1 1 406 406
86	1597845 21718 108 99404 12.934183453562 9978.413875652132 494 0.099999999998545 0.10000000000036 49.400000000003 4.9400000000006
87	1619563 11403 109 99555 12.988926965017 9995.238203395319 398 1 1 398 398
88	1630966 11601 111 99461 13.077651344422 9985.5730929031 405 1 1 405 405
89	1642567 22471 114 99560 13.088926965017 9995.338203395319 510 0.099999999998545 0.18485553946357 51.219975880089 5.1606307405227
90	1665038 22809 116 99466 13.177651344422 9985.6730929031 517 0.099999999998545 0.193815795027 51.793815795014 5.1975645623994
91	1687847 3170 125 99501 13.870993120615 9988.643385113392 111 1 1 111 111
92	1691017 3440 133 98259 14.699288423796 9862.017472301612 120 1 1 120 120
93	1694457 20786 136 99144 14.799288423796 9946.950441038629 472 0.099999999998545 0.18537859200387 47.362169683058 4.7646211136627
94	1715243 11172 137 98477 15.053482266256 9884.170306866993 389 1 1 389 389
95	1726415 21168 140 99172 15.153482266256 9948.950376519451 479 0.099999999998545 0.20016412183395 48.096485880938 4.8444520388212
96	1747583 2686 145 99289 15.744022799638 9964.423148505111 94 1 1 94 94
97	1750269 23569 148 99380 15.844022799638 9976.535411238788 534 0.099999999998545 0.16323932038495 53.477238135638 5.3596428055994
98	1773838 11116 149 99485 15.917490091316 9987.495052803179 388 1 1 388 388
99	1784954 20885 152 99488 16.017490091316 9987.595052803179 475 0.099999999998545 0.18358679982703 47.6464758445 4.7900191243877
100	1805839 10875 153 99225 16.788657058005 9956.615008458243 367 1 1 367 367
101	1816714 21234 156 99228 16.888657058005 9956.715008458243 472 0.099999999998545 0.19084281979212 47.30566833054 4.7496058797848
102	1837948 3158 157 98549 17.971207769679 9892.154176313051 106 1 1 106 106
103	1841106 21953 160 99596 18.071207769679 9999.055488862389 488 0.099999999998545 0.15958965032405 48.917225236067 4.9093401534945
104	1863059 12184 161 99589 18.464462629416 9998.007629130817 411 1 1 411 411
105	1875243 22705 164 99592 18.564462629416 9998.107629130817 504 0.099999999998545 0.14780006430192 50.447800064297 5.0518448590067
106	1897948 11753 165 99585 19.540128527867 9996.997804239498 396 1 1 396 396
107	1909701 22204 168 99588 19.640128527867 9997.097804239498 493 0.099999999998545 0.20921245243881 49.509871498003 4.9938887441354
108	1931905 12005 177 99329 20.221248888212 9969.098402770771 404 1 1 404 404
109	1943910 11401 181 99493 20.763186013277 9988.000707950127 384 1 1 384 384
110	1955311 22203 184 99500 20.863186013277 9988.100707950127 492 0.099999999998545 0.15998869862733 49.270295269245 4.9377639232097
111	1977514 10446 185 99135 20.867585225752 9946.850441038629 352 1 1 352 352
112	1987960 12283 187 99469 20.892250166162 9985.926842283059 415 1 1 415 415
113	2000243 22810 192 99472 20.992250166162 9986.026842283059 507 0.099999999998545 0.16938487316202 50.769384873157 5.0886912352551
114	2023053 3137 193 99521 21.207300545395 9990.44101473693 106 1 1 106 106
115	2026190 13074 199 99375 22.250831110219 9976.435411238788 440 1 1 440 440
116	2039264 2669 209 99061 22.718778834205 9942.887146423496 90 1 1 90 90
117	2041933 22316 212 99476 22.818778834205 9986.454156801246 495 0.099999999998545 0.12230836216713 49.553864736566 4.9618003772122
118	2064249 11311 215 99593 24.804291110201 9998.955488862389 382 1 1 382 382
119	2075560 11867 221 99421 25.118615160948 9981.502214081529 400 1 1 400 400
120	2087427 21991 224 99424 25.218615160948 9981.602214081529 488 0.099999999998545 0.17872256492228 48.978685686503 4.9269765802049
121	2109418 12353 225 99577 25.504554044473 9996.60579985425 416 1 1 416 416
122	2121771 22922 228 99582 25.604554044473 9996.70579985425 508 0.099999999998545 0.1955164927067 51.037313749308 5.147453548926
123	2144693 11623 241 99425 28.345372167855 9981.832897016754 391 1 1 391 391
124	2156316 12003 245 99473 28.466988355605 9986.354156801246 405 1 1 405 405
125	2168319 2761 249 91449 28.608465094548 9184.678781155852 93 1 1 93 93
126	2171080 3079 261 99385 30.115685172748 9976.918878764306 104 1 1 104 104
127	2174159 23050 264 99612 30.215685172748 9999.79586610793 511 0.099999999998545 0.19975622493257 51.369947496925 5.1884236669521
128	2197209 11707 265 99295 30.330719479804 9964.801263414536 395 1 1 395 395
129	2208916 22218 268 99300 30.430719479804 9964.901263414536 494 0.099999999998545 0.17556172691184 49.53235390612 4.9750379364514
130	2231134 11930 273 99545 30.846896400852 9994.605989530286 401 1 1 401 401
131	2243064 11658 283 99409 31.37792235246 9979.708414232039 393 1 1 393 393
132	2254722 22477 288 99414 31.47792235246 9979.808414232039 499 0.099999999998545 0.18775808081 50.027305959735 5.0247267074209
133	2277199 3312 289 99373 31.558496903045 9976.350368269534 112 1 1 112 112
134	2280511 12082 293 99301 32.10479114123 9966.121721512203 407 1 1 407 407
135	2292593 22477 296 99616 32.20479114123 9999.917618955375 499 0.099999999998545 0.19959577507689 50.14112992893 5.0593537562709
136	2315070 2547 297 95801 32.280041497851 9622.174106254532 86 1 1 86 86
137	2317617 2605 301 98943 32.361769849349 9932.738045922027 88 1 1 88 88
138	2320222 20499 304 99584 32.380041497851 9996.780827398588 455 0.099999999998545 0.13452485918606 45.549963215507 4.5614229518493
139	2340721 3291 305 98593 32.440806210984 9895.193607065786 111 1 1 111 111
140	2344012 11687 321 99481 33.444224006499 9987.388886644512 394 1 1 394 394
141	2355699 22266 324 99484 33.544224006499 9987.488886644512 494 0.099999999998545 0.18904375140755 49.567310693463 4.9853699777892
142	2377965 12055 333 99185 34.774876507613 9949.993833585181 406 1 1 406 406
143	2390020 11809 345 98725 35.749753268773 9908.166267834862 397 1 1 397 397
144	2401829 22797 348 98728 35.849753268773 9908.266267834862 506 0.099999999998545 0.19716114319294 50.764925739543 5.1062821633392
145	2424626 11272 349 99449 36.167385285499 9985.101207200419 379 1 1 379 379
146	2435898 21208 352 99452 36.267385285499 9985.201207200419 470 0.099999999998545 0.12071548284348 47.02071548284 4.7045722277974
147	2457106 3221 353 97965 36.783411384682 9830.644221607137 109 1 1 109 109
148	2460327 12262 357 98721 37.192084241493 9907.209468407467 413 1 1 413 413
149	2472589 23625 360 99540 37.292084241493 9994.24053732436 524 0.099999999998545 0.16615044809168 52.516086617586 5.2689504226445
150	2496214 11239 361 99317 37.579281084055 9967.649589197114 379 1 1 379 379
151	2507453 3101 363 98923 37.624270141594 9930.203677429095 105 1 1 105 105
152	2510554 21283 366 99320 37.679281084055 9967.749589197114 472 0.099999999998545 0.17692887769499 47.364031585133 4.7634274231703
153	2531837 2700 381 99109 38.151266474114 9945.379788480413 91 1 1 91 91
154	2534537 2914 393 96943 39.030906717689 9726.552051162254 98 1 1 98 98
155	2537451 23482 396 99604 39.130906717689 9999.470351842178 521 0.099999999998545 0.17359225056316 52.173592250562 5.2301342694554
156	2560933 13104 405 99529 40.806285158838 9993.197736945786 442 1 1 442 442
157	2574037 11516 407 99405 40.817844318234 9979.09114251371 388 1 1 388 388
158	2585553 24326 410 99532 40.906285158838 9993.297736945786 539 0.099999999998545 0.18239546570794 54.060991280534 5.4321218382775
159	2609879 21431 412 99408 40.917844318234 9979.19114251371 475 0.099999999998545 0.15268761491734 47.574394204808 4.7681260017717
160	2631310 2730 413 98879 41.084893371128 9925.523046254964 92 1 1 92 92
161	2634040 2728 425 99613 41.705583262649 9999.817618955375 92 1 1 92 92
162	2636768 2577 445 99249 42.871593669109 9957.962118796812 87 1 1 87 87
163	2639345 11104 467 99503 44.470488440726 9988.657471759243 374 1 1 374 374
164	2650449 2694 471 97285 44.55266735017 9759.174148376505 91 1 1 91 91
165	2653143 21079 474 99508 44.570488440726 9988.757471759243 468 0.099999999998545 0.15386305474567 46.853863054726 4.6936738396117
166	2674222 12556 501 99599 48.519232524348 9999.370351842178 423 1 1 423 423
167	2686778 2773 503 99053 48.597648312825 9942.467753844832 94 1 1 94 94
168	2689551 11449 547 99229 51.965081716979 9956.973715617366 386 1 1 386 386
169	2701000 21338 552 99232 52.065081716979 9957.073715617366 474 0.099999999998545 0.18538525431268 47.610571183068 4.7948909456449
170	2722338 3289 553 99537 52.533677332939 9994.14053732436 111 1 1 111 111
171	2725627 3030 601 99533 59.684774217808 9993.434945674765 102 1 1 102 102
172	2728657 2606 605 96771 60.219679051516 9709.050650482494 88 1 1 88 88
173	2731263 11240 621 99361 63.003398573518 9974.4525015903 378 1 1 378 378
174	2742503 21498 624 99364 63.103398573518 9974.5525015903 476 0.099999999998545 0.18967690559111 47.689676905595 4.7859773285153
175	2764001 3144 653 96817 64.885135358614 9712.352068678945 106 1 1 106 106
176	2767145 2694 675 99561 66.298245598566 9995.700736601809 91 1 1 91 91
177	2769839 22271 680 99564 66.398245598566 9995.800736601809 493 0.099999999998545 0.19516512550717 49.581424415959 5.0070885138536
178	2792110 3055 701 99273 67.824052809136 9962.095719735737 103 1 1 103 103
179	2795165 10927 711 99579 69.204759670678 9996.680827398588 369 1 1 369 369
180	2806092 11944 733 99133 70.29535635698 9946.825986625646 402 1 1 402 402
181	2818036 12080 791 99609 74.613978317255 9999.69586610793 407 1 1 407 407