file 2869598 1767629703                                         
version 3
run Uniform-24-20260105-17:15:03-28078
attr configname Uniform
attr datetime 20260105-17:15:03
attr datetimef 20260105-171503
attr experiment Uniform
attr inifile omnetpp.ini
attr iterationvars "$N=50, $p=0.9"
attr iterationvarsd N=50/p=0.9
attr iterationvarsf N=50,p=0.9-
attr measurement "$N=50, $p=0.9"
attr network progetto.DatabaseNetwork
attr processid 28078
attr repetition 4
attr replication #4
attr resultdir results
attr runnumber 24
attr seedset 4
itervar N 50
itervar p 0.9
config description "Uniform distribution - varia N e p"
config *.user[*].tableDistribution "\"uniform\""
config *.numUsers 50
config *.user[*].readProbability 0.9
config network progetto.DatabaseNetwork
config sim-time-limit 10000s
config cpu-time-limit 3600s
config repeat 5
config seed-set 4
config output-vector-file "results/Uniform-$N=50, $p=0.9-4.vec"
config output-scalar-file "results/Uniform-$N=50, $p=0.9-4.sca"
config result-dir results
config **.vector-recording true
config **.scalar-recording true
config *.numTables 20
config *.user[*].lambda 0.05
config *.user[*].serviceTime 0.1s

vector 0 DatabaseNetwork.user[0] AccessInterval ETV
vector 1 DatabaseNetwork.user[1] AccessInterval ETV
vector 2 DatabaseNetwork.user[2] AccessInterval ETV
vector 3 DatabaseNetwork.user[3] AccessInterval ETV
vector 4 DatabaseNetwork.user[4] AccessInterval ETV
vector 5 DatabaseNetwork.user[5] AccessInterval ETV
vector 6 DatabaseNetwork.user[6] AccessInterval ETV
vector 7 DatabaseNetwork.user[7] AccessInterval ETV
vector 8 DatabaseNetwork.user[8] AccessInterval ETV
vector 9 DatabaseNetwork.user[9] AccessInterval ETV
vector 10 DatabaseNetwork.user[10] AccessInterval ETV
vector 11 DatabaseNetwork.user[11] AccessInterval ETV
vector 12 DatabaseNetwork.user[12] AccessInterval ETV
vector 13 DatabaseNetwork.user[13] AccessInterval ETV
vector 14 DatabaseNetwork.user[14] AccessInterval ETV
vector 15 DatabaseNetwork.user[15] AccessInterval ETV
vector 16 DatabaseNetwork.user[16] AccessInterval ETV
vector 17 DatabaseNetwork.user[17] AccessInterval ETV
vector 18 DatabaseNetwork.user[18] AccessInterval ETV
vector 19 DatabaseNetwork.user[19] AccessInterval ETV
vector 20 DatabaseNetwork.user[20] AccessInterval ETV
vector 21 DatabaseNetwork.user[21] AccessInterval ETV
vector 22 DatabaseNetwork.user[22] AccessInterval ETV
vector 23 DatabaseNetwork.user[23] AccessInterval ETV
vector 24 DatabaseNetwork.user[24] AccessInterval ETV
vector 25 DatabaseNetwork.user[25] AccessInterval ETV
vector 26 DatabaseNetwork.user[26] AccessInterval ETV
vector 27 DatabaseNetwork.user[27] AccessInterval ETV
vector 28 DatabaseNetwork.user[28] AccessInterval ETV
vector 29 DatabaseNetwork.user[29] AccessInterval ETV
vector 30 DatabaseNetwork.user[30] AccessInterval ETV
vector 31 DatabaseNetwork.user[31] AccessInterval ETV
vector 32 DatabaseNetwork.user[32] AccessInterval ETV
vector 33 DatabaseNetwork.user[33] AccessInterval ETV
vector 34 DatabaseNetwork.user[34] AccessInterval ETV
vector 35 DatabaseNetwork.user[35] AccessInterval ETV
vector 36 DatabaseNetwork.user[36] AccessInterval ETV
vector 37 DatabaseNetwork.user[37] AccessInterval ETV
vector 38 DatabaseNetwork.user[38] AccessInterval ETV
vector 39 DatabaseNetwork.user[39] AccessInterval ETV
vector 40 DatabaseNetwork.user[40] AccessInterval ETV
vector 41 DatabaseNetwork.user[41] AccessInterval ETV
vector 42 DatabaseNetwork.user[42] AccessInterval ETV
vector 43 DatabaseNetwork.user[43] AccessInterval ETV
vector 44 DatabaseNetwork.user[44] AccessInterval ETV
vector 45 DatabaseNetwork.user[45] AccessInterval ETV
vector 46 DatabaseNetwork.user[46] AccessInterval ETV
vector 47 DatabaseNetwork.user[47] AccessInterval ETV
vector 48 DatabaseNetwork.user[48] AccessInterval ETV
vector 49 DatabaseNetwork.user[49] AccessInterval ETV
vector 50 DatabaseNetwork.user[21] ReadAccesses ETV
vector 51 DatabaseNetwork.user[14] ReadAccesses ETV
vector 52 DatabaseNetwork.user[32] ReadAccesses ETV
vector 53 DatabaseNetwork.user[21] WaitTime ETV
vector 54 DatabaseNetwork.user[14] WaitTime ETV
vector 55 DatabaseNetwork.user[32] WaitTime ETV
vector 56 DatabaseNetwork.user[41] ReadAccesses ETV
vector 57 DatabaseNetwork.user[41] WaitTime ETV
vector 58 DatabaseNetwork.user[43] ReadAccesses ETV
vector 59 DatabaseNetwork.user[36] ReadAccesses ETV
vector 60 DatabaseNetwork.user[43] WaitTime ETV
vector 61 DatabaseNetwork.user[36] WaitTime ETV
vector 62 DatabaseNetwork.user[11] ReadAccesses ETV
vector 63 DatabaseNetwork.user[11] WaitTime ETV
vector 64 DatabaseNetwork.user[28] ReadAccesses ETV
vector 65 DatabaseNetwork.user[28] WaitTime ETV
vector 66 DatabaseNetwork.user[3] ReadAccesses ETV
vector 67 DatabaseNetwork.user[48] ReadAccesses ETV
vector 68 DatabaseNetwork.user[3] WaitTime ETV
vector 69 DatabaseNetwork.user[48] WaitTime ETV
vector 70 DatabaseNetwork.user[22] ReadAccesses ETV
vector 71 DatabaseNetwork.user[22] WaitTime ETV
vector 72 DatabaseNetwork.user[10] ReadAccesses ETV
vector 73 DatabaseNetwork.user[10] WaitTime ETV
vector 74 DatabaseNetwork.user[13] ReadAccesses ETV
vector 75 DatabaseNetwork.user[13] WaitTime ETV
vector 76 DatabaseNetwork.user[16] ReadAccesses ETV
vector 77 DatabaseNetwork.user[16] WaitTime ETV
vector 78 DatabaseNetwork.user[35] WriteAccesses ETV
vector 79 DatabaseNetwork.user[35] WaitTime ETV
vector 80 DatabaseNetwork.user[25] ReadAccesses ETV
vector 81 DatabaseNetwork.user[25] WaitTime ETV
vector 82 DatabaseNetwork.user[34] ReadAccesses ETV
vector 83 DatabaseNetwork.user[34] WaitTime ETV
vector 84 DatabaseNetwork.user[29] ReadAccesses ETV
vector 85 DatabaseNetwork.user[29] WaitTime ETV
vector 86 DatabaseNetwork.user[32] WriteAccesses ETV
vector 87 DatabaseNetwork.user[13] WriteAccesses ETV
vector 88 DatabaseNetwork.user[18] ReadAccesses ETV
vector 89 DatabaseNetwork.user[40] ReadAccesses ETV
vector 90 DatabaseNetwork.user[18] WaitTime ETV
vector 91 DatabaseNetwork.user[40] WaitTime ETV
vector 92 DatabaseNetwork.user[49] ReadAccesses ETV
vector 93 DatabaseNetwork.user[49] WaitTime ETV
vector 94 DatabaseNetwork.user[47] ReadAccesses ETV
vector 95 DatabaseNetwork.user[47] WaitTime ETV
vector 96 DatabaseNetwork.user[18] WriteAccesses ETV
vector 97 DatabaseNetwork.user[35] ReadAccesses ETV
vector 98 DatabaseNetwork.user[2] WriteAccesses ETV
vector 99 DatabaseNetwork.user[2] WaitTime ETV
vector 100 DatabaseNetwork.user[23] ReadAccesses ETV
vector 101 DatabaseNetwork.user[23] WaitTime ETV
vector 102 DatabaseNetwork.user[30] ReadAccesses ETV
vector 103 DatabaseNetwork.user[9] WriteAccesses ETV
vector 104 DatabaseNetwork.user[30] WaitTime ETV
vector 105 DatabaseNetwork.user[9] WaitTime ETV
vector 106 DatabaseNetwork.user[27] WriteAccesses ETV
vector 107 DatabaseNetwork.user[27] WaitTime ETV
vector 108 DatabaseNetwork.user[7] ReadAccesses ETV
vector 109 DatabaseNetwork.user[10] WriteAccesses ETV
vector 110 DatabaseNetwork.user[7] WaitTime ETV
vector 111 DatabaseNetwork.user[33] ReadAccesses ETV
vector 112 DatabaseNetwork.user[33] WaitTime ETV
vector 113 DatabaseNetwork.user[19] WriteAccesses ETV
vector 114 DatabaseNetwork.user[19] WaitTime ETV
vector 115 DatabaseNetwork.user[37] ReadAccesses ETV
vector 116 DatabaseNetwork.user[37] WaitTime ETV
vector 117 DatabaseNetwork.user[8] WriteAccesses ETV
vector 118 DatabaseNetwork.user[15] ReadAccesses ETV
vector 119 DatabaseNetwork.user[8] WaitTime ETV
vector 120 DatabaseNetwork.user[15] WaitTime ETV
vector 121 DatabaseNetwork.user[19] ReadAccesses ETV
vector 122 DatabaseNetwork.user[6] ReadAccesses ETV
vector 123 DatabaseNetwork.user[6] WaitTime ETV
vector 124 DatabaseNetwork.user[20] ReadAccesses ETV
vector 125 DatabaseNetwork.user[20] WaitTime ETV
vector 126 DatabaseNetwork.user[44] ReadAccesses ETV
vector 127 DatabaseNetwork.user[44] WaitTime ETV
vector 128 DatabaseNetwork.user[39] ReadAccesses ETV
vector 129 DatabaseNetwork.user[31] ReadAccesses ETV
vector 130 DatabaseNetwork.user[39] WaitTime ETV
vector 131 DatabaseNetwork.user[31] WaitTime ETV
vector 132 DatabaseNetwork.user[47] WriteAccesses ETV
vector 133 DatabaseNetwork.user[5] ReadAccesses ETV
vector 134 DatabaseNetwork.user[5] WaitTime ETV
vector 135 DatabaseNetwork.user[2] ReadAccesses ETV
vector 136 DatabaseNetwork.user[31] WriteAccesses ETV
vector 137 DatabaseNetwork.user[24] ReadAccesses ETV
vector 138 DatabaseNetwork.user[24] WaitTime ETV
vector 139 DatabaseNetwork.user[9] ReadAccesses ETV
vector 140 DatabaseNetwork.user[46] ReadAccesses ETV
vector 141 DatabaseNetwork.user[14] WriteAccesses ETV
vector 142 DatabaseNetwork.user[46] WaitTime ETV
vector 143 DatabaseNetwork.user[28] WriteAccesses ETV
vector 144 DatabaseNetwork.user[1] ReadAccesses ETV
vector 145 DatabaseNetwork.user[1] WaitTime ETV
vector 146 DatabaseNetwork.user[17] ReadAccesses ETV
vector 147 DatabaseNetwork.user[17] WaitTime ETV
vector 148 DatabaseNetwork.user[44] WriteAccesses ETV
vector 149 DatabaseNetwork.user[46] WriteAccesses ETV
vector 150 DatabaseNetwork.user[45] ReadAccesses ETV
vector 151 DatabaseNetwork.user[45] WaitTime ETV
vector 152 DatabaseNetwork.user[25] WriteAccesses ETV
vector 153 DatabaseNetwork.user[42] ReadAccesses ETV
vector 154 DatabaseNetwork.user[42] WaitTime ETV
vector 155 DatabaseNetwork.user[27] ReadAccesses ETV
vector 156 DatabaseNetwork.user[23] WriteAccesses ETV
vector 157 DatabaseNetwork.user[38] ReadAccesses ETV
vector 158 DatabaseNetwork.user[3] WriteAccesses ETV
vector 159 DatabaseNetwork.user[38] WaitTime ETV
vector 160 DatabaseNetwork.user[0] ReadAccesses ETV
vector 161 DatabaseNetwork.user[0] WaitTime ETV
vector 162 DatabaseNetwork.user[33] WriteAccesses ETV
vector 163 DatabaseNetwork.user[48] WriteAccesses ETV
vector 164 DatabaseNetwork.user[4] ReadAccesses ETV
vector 165 DatabaseNetwork.user[4] WaitTime ETV
vector 166 DatabaseNetwork.user[12] ReadAccesses ETV
vector 167 DatabaseNetwork.user[12] WaitTime ETV
vector 168 DatabaseNetwork.user[30] WriteAccesses ETV
vector 169 DatabaseNetwork.user[8] ReadAccesses ETV
vector 170 DatabaseNetwork.user[26] ReadAccesses ETV
vector 171 DatabaseNetwork.user[26] WaitTime ETV
vector 172 DatabaseNetwork.user[22] WriteAccesses ETV
vector 173 DatabaseNetwork.user[41] WriteAccesses ETV
vector 174 DatabaseNetwork.user[38] WriteAccesses ETV
vector 175 DatabaseNetwork.user[5] WriteAccesses ETV
vector 176 DatabaseNetwork.user[4] WriteAccesses ETV
vector 177 DatabaseNetwork.user[34] WriteAccesses ETV
vector 178 DatabaseNetwork.user[6] WriteAccesses ETV
vector 179 DatabaseNetwork.user[42] WriteAccesses ETV
vector 180 DatabaseNetwork.user[16] WriteAccesses ETV
vector 181 DatabaseNetwork.user[21] WriteAccesses ETV
vector 182 DatabaseNetwork.user[15] WriteAccesses ETV
vector 183 DatabaseNetwork.user[29] WriteAccesses ETV
vector 184 DatabaseNetwork.user[17] WriteAccesses ETV
vector 185 DatabaseNetwork.user[11] WriteAccesses ETV
vector 186 DatabaseNetwork.user[45] WriteAccesses ETV
vector 187 DatabaseNetwork.user[39] WriteAccesses ETV
vector 188 DatabaseNetwork.user[0] WriteAccesses ETV
vector 189 DatabaseNetwork.user[49] WriteAccesses ETV
vector 190 DatabaseNetwork.user[40] WriteAccesses ETV
vector 191 DatabaseNetwork.user[43] WriteAccesses ETV
vector 192 DatabaseNetwork.user[12] WriteAccesses ETV
vector 193 DatabaseNetwork.user[26] WriteAccesses ETV
vector 194 DatabaseNetwork.user[37] WriteAccesses ETV
vector 195 DatabaseNetwork.user[20] WriteAccesses ETV
vector 196 DatabaseNetwork.user[24] WriteAccesses ETV
vector 197 DatabaseNetwork.user[36] WriteAccesses ETV
vector 198 DatabaseNetwork.user[7] WriteAccesses ETV
vector 199 DatabaseNetwork.user[1] WriteAccesses ETV
0	11494 20867 0 98241 0 9997.421044644325 502 0.078602041970878 136.47660212187 10043.357718379 419270.18255198
1	32361 21968 0 98197 0 9993.527857317843 528 0.0027505709596991 143.29976163663 10018.375670788 374827.03564063
2	54329 22022 0 98253 0 9997.77080822595 530 0.015606280608321 140.3559909028 10006.372835345 397206.57980893
3	76351 20684 0 97821 0 9949.001527648247 498 0.045283267428249 132.26562646478 10002.446872642 436836.03950614
4	97035 21520 0 97785 0 9945.119987378361 517 0.080484410282543 112.86254503164 10038.296164 372361.46738851
5	118555 20918 0 98289 0 9999.860937797437 503 0.0079620364071526 222.30832138436 10003.530052159 430698.15577198
6	139473 22687 0 98245 0 9997.471537289061 545 0.017334053604634 124.89127585828 10019.578108466 358889.75825121
7	162160 22131 0 98097 0 9983.365597114674 532 0.0047075094875229 159.43521620384 10000.779268754 399467.85869027
8	184291 19702 0 97997 0 9968.150628578 474 0.15581334764642 115.34319623579 10011.019759602 413027.08427994
9	203993 21352 0 97993 0 9967.427837489219 514 0.0099168340252379 137.32571600505 10034.256148144 387381.77997784
10	225345 20293 0 97763 0 9940.947221406533 477 0.092669311951042 151.5771546567 10019.120890426 444650.53429418
11	245638 21145 0 98217 0 9995.183307134879 497 0.020074093252861 130.76095664841 10001.952636075 422961.96107298
12	266783 19543 0 98165 0 9990.581961869083 459 0.015623989558225 150.19267829954 10000.3004051 440574.40420761
13	286326 21632 0 97701 0 9935.265050417749 508 5.5749047015316e-05 130.9763476901 10010.072876862 417900.72045045
14	307958 19907 0 98037 0 9976.249247460341 467 0.12499492053836 157.39789253232 10021.654760258 419862.91192517
15	327865 21120 0 98269 0 9998.846805512508 496 0.0004518036539097 118.12085387615 10013.954807846 385722.58850467
16	348985 19472 0 97985 0 9966.294712043261 458 0.10173196340094 149.0660826959 10010.09149045 424209.84605456
17	368457 19713 0 98135 0 9989.364016844113 463 0.075305926984173 142.42586720194 10005.995314215 416213.30391055
18	388170 22998 0 98029 0 9975.104768371591 540 0.058937265770526 129.16825314681 10030.413972648 378590.76649623
19	411168 20538 0 98235 0 9996.615171026139 483 0.061586252001885 172.9193582331 10169.534529259 431696.57782549
20	431706 19426 0 97975 0 9963.805070253091 457 0.052061890943045 141.72608792658 10006.117299687 433852.75830189
21	451132 21283 0 98085 0 9982.40829886654 500 0.076936464095804 145.52115947366 10003.118557197 397104.70448664
22	472415 20598 0 98263 0 9998.502423417022 484 0.0029276079142465 142.03879635957 10026.288802059 409166.49557664
23	493013 20784 0 98193 0 9993.192958988225 488 0.033278881865096 134.4994904339 10010.666083635 396435.99767431
24	513797 20420 0 98003 0 9971.13053485477 480 0.0024133560603838 112.33095569395 10019.714566305 399503.69427593
25	534217 20267 0 98123 0 9986.380253881306 477 0.004879156118163 132.74091102854 10015.414503724 408240.76758076
26	554484 19331 0 98185 0 9992.867441774549 454 0.1151121334192 133.29516050925 10002.182630291 432219.04501931
27	573815 21214 0 98149 0 9989.682707983215 498 0.052399803935748 131.19391599351 10020.925879111 392638.31230101
28	595029 21761 0 98277 0 9999.241727885925 512 0.061071937652386 103.92626573281 10015.60544499 366726.2430632
29	616790 19817 0 98243 0 9997.43312744136 466 0.0087820039761462 210.13066373547 10052.341674206 460734.42150321
30	636607 21296 0 98223 0 9995.736818973384 500 0.0021693309033906 144.6056079225 10009.048020375 401402.46243793
31	657903 21475 0 98089 0 9982.664717701378 505 0.024369783272852 100.72379330722 10021.725050553 369621.20144286
32	679378 21532 0 98069 0 9981.04581359215 506 0.0029521239278352 147.63342473585 10024.541729419 431551.683074
33	700910 22119 0 98221 0 9995.685816581547 520 0.04360463683343 115.93672928004 10005.142551987 362746.31541564
34	723029 20074 0 98079 0 9982.288010434108 472 0.031010098868493 166.20357958534 10032.743228346 424391.67767523
35	743103 20243 0 98213 0 9994.456237772916 475 0.044951961906862 119.07557650739 10035.952619513 420780.43157855
36	763346 20510 0 98285 0 9999.780505546489 482 0.028953106717062 153.40320659611 10000.310601149 408401.75335119
37	783856 22016 0 98293 0 9999.892940268995 517 0.042716209667178 134.39990417053 10049.791205739 397183.55019269
38	805872 20991 0 98233 0 9996.550027303466 493 0.00012376383987706 119.97708380181 10045.725573013 418436.53002308
39	826863 20411 0 98287 0 9999.825322636885 480 0.020477769622619 128.15853731844 10011.423530531 405289.24928475
40	847274 22026 0 97953 0 9961.324103709315 517 0.025791063055574 130.4021538872 10014.204821731 377650.89914083
41	869300 19820 0 98121 0 9986.330641074843 465 0.010797795084929 147.02931349729 10016.541868974 443005.23288144
42	889120 20422 0 98271 0 9998.869716755102 479 0.027363887810675 127.16578786748 10049.663991507 413046.09524999
43	909542 21049 0 98173 0 9991.892381079451 494 0.0035495340702879 161.03219326822 10007.751658212 421897.43571738
44	930591 21558 0 98161 0 9990.448594215911 506 0.029541589300919 121.28066667115 10001.001998791 382721.29396397
45	952149 21154 0 98281 0 9999.346985609437 497 0.012307642376304 147.20731768034 10028.04872583 436220.11654884
46	973303 19672 0 98129 0 9987.654265885074 463 0.15392307402875 135.45740468175 10011.894865908 446786.91664975
47	992975 20622 0 98229 0 9996.339409230896 484 0.019809860504066 170.45449509741 10001.540601011 466332.24047333
48	1013597 20519 0 97781 0 9944.771333640899 482 0.03271125503263 183.02726823281 10019.212273278 421208.4993984
49	1034116 20468 0 98049 0 9978.2315482053 481 0.0057460472081264 151.12435135245 10006.864490093 406666.09592717
50	1054584 13044 1 98085 0.103450084854 9982.40829886654 455 1 1 455 455
51	1067628 11752 3 98037 0.124994920538 9976.249247460341 409 1 1 409 409
52	1079380 12601 5 98069 0.180534259308 9981.04581359215 440 1 1 440 440
53	1091981 22018 8 98088 0.203450084854 9982.50829886654 499 0.099999999998545 0.10000000000036 49.899999999992 4.9899999999984
54	1113999 20542 10 98040 0.224994920538 9976.349247460341 466 0.099999999998545 0.1407955290324 46.670992437416 4.6767746159484
55	1134541 22224 12 98072 0.280534259308 9981.14581359215 505 0.099999999998545 0.16494387874604 50.56494387876 5.0672064831386
56	1156765 12154 13 98121 0.384160801167 9986.330641074843 423 1 1 423 423
57	1168919 20490 16 98126 0.484160801167 9986.430641074843 464 0.099999999998545 0.18253001827088 46.482530018272 4.6633172075702
58	1189409 12996 17 98173 0.811864623012 9991.892381079451 453 1 1 453 453
59	1202405 12745 19 98285 0.903296000607 9999.780505546489 445 1 1 445 445
60	1215150 21680 22 98180 0.911864623012 9991.992381079451 493 0.099999999998545 0.17123351647206 49.415248477993 4.9595985729324
61	1236830 21180 24 98292 1.003296000607 9999.880505546489 481 0.099999999998545 0.16160011094803 48.212859204793 4.8389939093305
62	1258010 13039 25 98217 3.050537345286 9995.183307134879 455 1 1 455 455
63	1271049 21824 28 98220 3.150537345286 9995.283307134879 496 0.099999999998545 0.10000000000036 49.599999999992 4.9599999999983
64	1292873 13110 29 98277 3.578759603203 9999.241727885925 458 1 1 458 458
65	1305983 22458 32 98280 3.678759603203 9999.341727885925 511 0.099999999998545 0.15800420101499 51.158004201021 5.1249653275395
66	1328441 13005 33 97821 3.791644837522 9949.001527648247 454 1 1 454 454
67	1341446 12528 35 97781 3.803012575959 9944.771333640899 437 1 1 437 437
68	1353974 21852 38 97824 3.891644837522 9949.101527648247 497 0.099999999998545 0.10000000000036 49.700000000013 4.9700000000026
69	1375826 21173 40 97784 3.903012575959 9944.871333640899 481 0.099999999998545 0.11141029661076 48.111410296624 4.8124122541935
70	1396999 12291 43 98263 4.405081391127 9998.502423417022 428 1 1 428 428
71	1409290 21260 48 98268 4.505081391127 9998.602423417022 483 0.099999999998545 0.11393138149003 48.313931381489 4.8329803596879
72	1430550 12248 49 97763 4.869208481028 9940.947221406533 427 1 1 427 427
73	1442798 20939 52 97768 4.969208481028 9941.047221406533 476 0.099999999998545 0.16793115412565 47.774627742451 4.8052693376012
74	1463737 12804 53 97701 5.085098776772 9935.265050417749 447 1 1 447 447
75	1476541 22322 56 97704 5.185098776772 9935.365050417749 507 0.099999999998545 0.19983620290805 50.799836202908 5.0999345079928
76	1498863 11950 57 97985 5.833329620429 9966.294712043261 417 1 1 417 417
77	1510813 20081 60 97988 5.933329620429 9966.394712043261 457 0.099999999998545 0.17172796545219 45.771727965465 4.5894904941209
78	1530894 1402 61 93739 6.197838799042 9527.769704567067 49 1 1 49 49
79	1532296 20892 64 98216 6.297838799042 9994.556237772916 474 0.099999999998545 0.19168798049486 47.510202052962 4.7707898672391
80	1553188 12227 69 98123 8.972557471138 9986.380253881306 427 1 1 427 427
81	1565415 20952 72 98128 9.072557471138 9986.480253881306 476 0.099999999998545 0.15668290242502 47.656682902429 4.7745495319131
82	1586367 12418 73 98079 9.773824215015 9982.288010434108 434 1 1 434 434
83	1598785 20705 76 98084 9.873824215015 9982.388010434108 471 0.099999999998545 0.18498457138617 47.194140675842 4.7361343467908
84	1619490 11624 77 98243 9.943918478517 9997.43312744136 406 1 1 406 406
85	1631114 20433 80 98250 10.043918478517 9997.53312744136 465 0.099999999998545 0.16986677079808 46.569866770815 4.6688547198247
86	1651547 1862 81 96633 10.680507925978 9828.351735707079 65 1 1 65 65
87	1653409 1714 85 96549 10.937105802558 9817.991796504965 60 1 1 60 60
88	1655123 13973 97 98029 11.411212832884 9975.104768371591 487 1 1 487 487
89	1669096 13325 99 97953 11.459221530867 9961.324103709315 465 1 1 465 465
90	1682421 23728 102 98034 11.511212832884 9975.204768371591 539 0.099999999998545 0.14321962946406 54.000064565705 5.4136638641568
91	1706149 22747 104 97956 11.559221530867 9961.424103709315 516 0.099999999998545 0.10000000000036 51.600000000009 5.1600000000017
92	1728896 12251 105 98049 11.644589893943 9978.2315482053 428 1 1 428 428
93	1741147 21092 108 98052 11.744589893943 9978.3315482053 480 0.099999999998545 0.18142895389383 48.148773724403 4.8409207375259
94	1762239 12351 109 98229 11.824422337879 9996.339409230896 430 1 1 430 430
95	1774590 21300 112 98232 11.924422337879 9996.439409230896 483 0.099999999998545 0.10000000000036 48.299999999998 4.8299999999995
96	1795890 1488 113 95049 13.078393711605 9666.404109186362 52 1 1 52 52
97	1797378 12196 117 98213 15.212954889213 9994.456237772916 425 1 1 425 425
98	1809574 1332 121 96511 15.847519705861 9814.110497786571 47 1 1 47 47
99	1810906 23247 124 98258 15.947519705861 9997.87080822595 529 0.099999999998545 0.18450238760693 53.047144910078 5.3304937211486
100	1834153 12635 125 98193 16.989307105541 9993.192958988225 425 1 1 425 425
101	1846788 21953 128 98196 17.089307105541 9993.292958988225 487 0.099999999998545 0.10985067113597 48.709850671139 4.8720671699496
102	1868741 13085 141 98223 18.192954053306 9995.736818973384 441 1 1 441 441
103	1881826 1862 143 96025 18.203996667261 9764.997586662378 63 1 1 63 63
104	1883688 22483 146 98228 18.292954053306 9995.836818973384 499 0.099999999998545 0.17471569205827 50.037970159907 5.0271775943258
105	1906171 23039 148 97996 18.303996667261 9967.527837489219 513 0.099999999998545 0.19314383608616 51.546411261066 5.1997365831663
106	1929210 1454 151 98149 18.533485951062 9989.682707983215 49 1 1 49 49
107	1930664 22396 156 98156 18.633485951062 9989.782707983215 497 0.099999999998545 0.17041109795173 49.770411097958 4.9890399423065
108	1953060 14268 157 98097 18.782775338233 9983.365597114674 481 1 1 481 481
109	1967328 1447 159 96069 18.83373206621 9770.972805032391 49 1 1 49 49
110	1968775 23964 162 98102 18.882775338233 9983.465597114674 531 0.099999999998545 0.18884353535714 53.188843535352 5.3356618808451
111	1992739 14116 163 98221 18.962096682497 9995.685816581547 476 1 1 476 476
112	2006855 23369 170 98226 19.062096682497 9995.785816581547 519 0.099999999998545 0.19122388641017 52.00963176108 5.2205869995182
113	2030224 1601 177 97377 20.045857794132 9902.37044404649 54 1 1 54 54
114	2031825 21686 182 98240 20.145857794132 9996.715171026139 482 0.099999999998545 0.11340752822161 48.213407528228 4.8228612674586
115	2053511 13778 185 98293 20.651674870035 9999.892940268995 464 1 1 464 464
116	2067289 23291 190 98300 20.751674870035 9999.992940268995 516 0.099999999998545 0.13230754597862 51.632307545984 5.167505286724
117	2090580 1723 207 95113 23.928614636913 9672.16546665409 58 1 1 58 58
118	2092303 13529 211 98269 23.97441503593 9998.846805512508 456 1 1 456 456
119	2105832 21320 214 98000 24.032577761217 9968.250628578 473 0.099999999998545 0.11766881606036 47.330413348647 4.7364876762757
120	2127152 22333 216 98274 24.07441503593 9998.946805512508 495 0.099999999998545 0.19051895200118 49.738460409809 5.0152003895384
121	2149485 12687 217 98235 24.340415989707 9996.615171026139 428 1 1 428 428
122	2162172 14528 229 98245 25.092413473659 9997.471537289061 489 1 1 489 489
123	2176700 24575 232 98252 25.192413473659 9997.571537289061 544 0.099999999998545 0.18382250227501 54.483822502265 5.4637907123407
124	2201275 11876 271 97975 30.226535538176 9963.805070253091 401 1 1 401 401
125	2213151 20519 276 97980 30.326535538176 9963.905070253091 456 0.099999999998545 0.17733011588803 45.721196522106 4.5921435128382
126	2233670 13425 281 98161 30.864202401754 9990.448594215911 452 1 1 452 452
127	2247095 22792 284 98164 30.964202401754 9990.548594215911 505 0.099999999998545 0.17996679188536 50.582508455189 5.0729028388945
128	2269887 12796 309 98143 33.326738266834 9989.561678474788 432 1 1 432 432
129	2282683 13102 311 98089 33.420708601755 9982.664717701378 442 1 1 442 442
130	2295785 21594 314 98296 33.426738266834 9999.925322636885 479 0.099999999998545 0.10000000000036 47.899999999996 4.7899999999991
131	2317379 22713 320 98092 33.520708601755 9982.764717701378 504 0.099999999998545 0.13472692896721 50.434726928973 5.04815134539
132	2340092 1565 337 98075 36.22801176678 9982.276242250021 53 1 1 53 53
133	2341657 13324 345 98289 38.706262212746 9999.860937797437 449 1 1 449 449
134	2354981 22642 348 98298 38.806262212746 9999.960937797437 502 0.099999999998545 0.10000000000036 50.200000000006 5.0200000000012
135	2377623 14291 357 98253 39.422761669192 9997.77080822595 482 1 1 482 482
136	2391914 1830 361 96593 39.558292116578 9822.038810216969 62 1 1 62 62
137	2393744 12740 367 98003 39.754499530406 9971.13053485477 430 1 1 430 430
138	2406484 21592 374 98008 39.854499530406 9971.23053485477 479 0.099999999998545 0.17237282814585 48.006496508883 4.8177015536169
139	2428076 13341 379 97993 40.191914780355 9967.427837489219 450 1 1 450 450
140	2441417 12362 383 98129 40.241534932212 9987.654265885074 417 1 1 417 417
141	2453779 1695 387 96919 40.305812902198 9858.631183583177 57 1 1 57 57
142	2455474 20750 390 98132 40.341534932212 9987.754265885074 462 0.099999999998545 0.17132291751409 46.271322917509 4.6393515420645
143	2476224 1567 431 96185 45.580802308549 9781.085435197823 53 1 1 53 53
144	2477791 14485 441 98197 46.1763806128 9993.527857317843 488 1 1 488 488
145	2492276 23787 444 98200 46.2763806128 9993.627857317843 527 0.099999999998545 0.10000000000036 52.7 5.2700000000001
146	2516063 12372 453 98135 46.69772947558 9989.364016844113 417 1 1 417 417
147	2528435 20838 456 98140 46.79772947558 9989.464016844113 462 0.099999999998545 0.10000000000036 46.200000000004 4.6200000000007
148	2549273 1575 457 96759 47.528226303658 9844.258037332589 53 1 1 53 53
149	2550848 1329 559 95425 57.728050605792 9703.873134585962 45 1 1 45 45
150	2552177 12915 565 98281 58.009840032086 9999.346985609437 436 1 1 436 436
151	2565092 22365 568 98284 58.109840032086 9999.446985609437 496 0.099999999998545 0.10000000000036 49.600000000003 4.9600000000005
152	2587457 1438 581 95443 59.086921152284 9704.995957457079 49 1 1 49 49
153	2588895 12512 585 98271 59.509695669513 9998.869716755102 421 1 1 421 421
154	2601407 21577 588 98276 59.609695669513 9998.969716755102 478 0.099999999998545 0.18344070792401 47.883440707935 4.8036504933258
155	2622984 13291 597 98105 61.328136094157 9983.869688944001 448 1 1 448 448
156	2636275 1829 601 97233 62.600953235696 9891.12933577809 62 1 1 62 62
157	2638104 12998 609 98233 62.770340217444 9996.550027303466 438 1 1 438 438
158	2651102 1274 611 97453 62.83006087878 9913.499336787504 43 1 1 43 43
159	2652376 22199 614 98238 62.870340217444 9996.650027303466 492 0.099999999998545 0.18576325632876 49.34124832592 4.9579656454968
160	2674575 13165 637 98241 68.243046383688 9997.421044644325 444 1 1 444 444
161	2687740 22586 640 98248 68.343046383688 9997.521044644325 501 0.099999999998545 0.17503708203913 50.175037082058 5.0306379800926
162	2710326 1276 669 95437 70.944178926142 9704.81120369846 43 1 1 43 43
163	2711602 1308 677 96819 71.829551217659 9849.335107817211 44 1 1 44 44
164	2712910 13934 681 97785 72.005912418388 9945.119987378361 469 1 1 469 469
165	2726844 23320 686 97790 72.105912418388 9945.219987378361 516 0.099999999998545 0.15712884902769 51.657128849021 5.1746894751955
166	2750164 12371 709 98165 74.824059039247 9990.581961869083 417 1 1 417 417
167	2762535 20658 716 98168 74.924059039247 9990.681961869083 458 0.099999999998545 0.10000000000036 45.799999999998 4.5799999999997
168	2783193 1720 731 95649 76.020426082354 9724.880566529894 58 1 1 58 58
169	2784913 12305 789 97997 81.504497278997 9968.150628578 415 1 1 415 415
170	2797218 11874 801 98185 81.967862981223 9992.867441774549 400 1 1 400 400
171	2809092 20450 806 98188 82.067862981223 9992.967441774549 453 0.099999999998545 0.19746150603351 45.397461506034 4.5589910463651
172	2829542 1610 1041 95361 106.97564385757 9696.142605432918 55 1 1 55 55
173	2831152 1213 1091 96905 112.254994050996 9857.882747470456 41 1 1 41 41
174	2832365 1598 1193 94741 125.793669139916 9635.219875181274 54 1 1 54 54
175	2833963 1578 1265 98065 132.600223195109 9980.779952989569 53 1 1 53 53
176	2835541 1398 1301 97597 139.86572123628 9926.249088752393 47 1 1 47 47
177	2836939 1103 1429 97273 150.38649436482 9894.237107154237 37 1 1 37 37
178	2838042 1629 1597 97801 167.355257064072 9946.271323789916 55 1 1 55 55
179	2839671 1693 1625 95205 169.810919507418 9680.919111437177 57 1 1 57 57
180	2841364 1180 1857 97099 192.004273119799 9879.264900607003 40 1 1 40 40
181	2842544 1307 2017 97169 211.813262098518 9886.493298170155 44 1 1 44 44