file 4437205 1767628862                                         
version 3
run Uniform-33-20260105-17:01:02-25051
attr configname Uniform
attr datetime 20260105-17:01:02
attr datetimef 20260105-170102
attr experiment Uniform
attr inifile omnetpp.ini
attr iterationvars "$N=75, $p=0.5"
attr iterationvarsd N=75/p=0.5
attr iterationvarsf N=75,p=0.5-
attr measurement "$N=75, $p=0.5"
attr network progetto.DatabaseNetwork
attr processid 25051
attr repetition 3
attr replication #3
attr resultdir results
attr runnumber 33
attr seedset 3
itervar N 75
itervar p 0.5
config description "Uniform distribution - varia N e p"
config *.user[*].tableDistribution "\"uniform\""
config *.numUsers 75
config *.user[*].readProbability 0.5
config network progetto.DatabaseNetwork
config sim-time-limit 10000s
config cpu-time-limit 3600s
config repeat 5
config seed-set 3
config output-vector-file "results/Uniform-$N=75, $p=0.5-3.vec"
config output-scalar-file "results/Uniform-$N=75, $p=0.5-3.sca"
config result-dir results
config **.vector-recording true
config **.scalar-recording true
config *.numTables 20
config *.user[*].lambda 0.05
config *.user[*].serviceTime 0.1s

vector 0 DatabaseNetwork.user[0] AccessInterval ETV
vector 1 DatabaseNetwork.user[1] AccessInterval ETV
vector 2 DatabaseNetwork.user[2] AccessInterval ETV
vector 3 DatabaseNetwork.user[3] AccessInterval ETV
vector 4 DatabaseNetwork.user[4] AccessInterval ETV
vector 5 DatabaseNetwork.user[5] AccessInterval ETV
vector 6 DatabaseNetwork.user[6] AccessInterval ETV
vector 7 DatabaseNetwork.user[7] AccessInterval ETV
vector 8 DatabaseNetwork.user[8] AccessInterval ETV
vector 9 DatabaseNetwork.user[9] AccessInterval ETV
vector 10 DatabaseNetwork.user[10] AccessInterval ETV
vector 11 DatabaseNetwork.user[11] AccessInterval ETV
vector 12 DatabaseNetwork.user[12] AccessInterval ETV
vector 13 DatabaseNetwork.user[13] AccessInterval ETV
vector 14 DatabaseNetwork.user[14] AccessInterval ETV
vector 15 DatabaseNetwork.user[15] AccessInterval ETV
vector 16 DatabaseNetwork.user[16] AccessInterval ETV
vector 17 DatabaseNetwork.user[17] AccessInterval ETV
vector 18 DatabaseNetwork.user[18] AccessInterval ETV
vector 19 DatabaseNetwork.user[19] AccessInterval ETV
vector 20 DatabaseNetwork.user[20] AccessInterval ETV
vector 21 DatabaseNetwork.user[21] AccessInterval ETV
vector 22 DatabaseNetwork.user[22] AccessInterval ETV
vector 23 DatabaseNetwork.user[23] AccessInterval ETV
vector 24 DatabaseNetwork.user[24] AccessInterval ETV
vector 25 DatabaseNetwork.user[25] AccessInterval ETV
vector 26 DatabaseNetwork.user[26] AccessInterval ETV
vector 27 DatabaseNetwork.user[27] AccessInterval ETV
vector 28 DatabaseNetwork.user[28] AccessInterval ETV
vector 29 DatabaseNetwork.user[29] AccessInterval ETV
vector 30 DatabaseNetwork.user[30] AccessInterval ETV
vector 31 DatabaseNetwork.user[31] AccessInterval ETV
vector 32 DatabaseNetwork.user[32] AccessInterval ETV
vector 33 DatabaseNetwork.user[33] AccessInterval ETV
vector 34 DatabaseNetwork.user[34] AccessInterval ETV
vector 35 DatabaseNetwork.user[35] AccessInterval ETV
vector 36 DatabaseNetwork.user[36] AccessInterval ETV
vector 37 DatabaseNetwork.user[37] AccessInterval ETV
vector 38 DatabaseNetwork.user[38] AccessInterval ETV
vector 39 DatabaseNetwork.user[39] AccessInterval ETV
vector 40 DatabaseNetwork.user[40] AccessInterval ETV
vector 41 DatabaseNetwork.user[41] AccessInterval ETV
vector 42 DatabaseNetwork.user[42] AccessInterval ETV
vector 43 DatabaseNetwork.user[43] AccessInterval ETV
vector 44 DatabaseNetwork.user[44] AccessInterval ETV
vector 45 DatabaseNetwork.user[45] AccessInterval ETV
vector 46 DatabaseNetwork.user[46] AccessInterval ETV
vector 47 DatabaseNetwork.user[47] AccessInterval ETV
vector 48 DatabaseNetwork.user[48] AccessInterval ETV
vector 49 DatabaseNetwork.user[49] AccessInterval ETV
vector 50 DatabaseNetwork.user[50] AccessInterval ETV
vector 51 DatabaseNetwork.user[51] AccessInterval ETV
vector 52 DatabaseNetwork.user[52] AccessInterval ETV
vector 53 DatabaseNetwork.user[53] AccessInterval ETV
vector 54 DatabaseNetwork.user[54] AccessInterval ETV
vector 55 DatabaseNetwork.user[55] AccessInterval ETV
vector 56 DatabaseNetwork.user[56] AccessInterval ETV
vector 57 DatabaseNetwork.user[57] AccessInterval ETV
vector 58 DatabaseNetwork.user[58] AccessInterval ETV
vector 59 DatabaseNetwork.user[59] AccessInterval ETV
vector 60 DatabaseNetwork.user[60] AccessInterval ETV
vector 61 DatabaseNetwork.user[61] AccessInterval ETV
vector 62 DatabaseNetwork.user[62] AccessInterval ETV
vector 63 DatabaseNetwork.user[63] AccessInterval ETV
vector 64 DatabaseNetwork.user[64] AccessInterval ETV
vector 65 DatabaseNetwork.user[65] AccessInterval ETV
vector 66 DatabaseNetwork.user[66] AccessInterval ETV
vector 67 DatabaseNetwork.user[67] AccessInterval ETV
vector 68 DatabaseNetwork.user[68] AccessInterval ETV
vector 69 DatabaseNetwork.user[69] AccessInterval ETV
vector 70 DatabaseNetwork.user[70] AccessInterval ETV
vector 71 DatabaseNetwork.user[71] AccessInterval ETV
vector 72 DatabaseNetwork.user[72] AccessInterval ETV
vector 73 DatabaseNetwork.user[73] AccessInterval ETV
vector 74 DatabaseNetwork.user[74] AccessInterval ETV
vector 75 DatabaseNetwork.user[11] ReadAccesses ETV
vector 76 DatabaseNetwork.user[59] ReadAccesses ETV
vector 77 DatabaseNetwork.user[11] WaitTime ETV
vector 78 DatabaseNetwork.user[32] WriteAccesses ETV
vector 79 DatabaseNetwork.user[59] WaitTime ETV
vector 80 DatabaseNetwork.user[32] WaitTime ETV
vector 81 DatabaseNetwork.user[20] ReadAccesses ETV
vector 82 DatabaseNetwork.user[20] WaitTime ETV
vector 83 DatabaseNetwork.user[13] WriteAccesses ETV
vector 84 DatabaseNetwork.user[11] WriteAccesses ETV
vector 85 DatabaseNetwork.user[13] WaitTime ETV
vector 86 DatabaseNetwork.user[16] WriteAccesses ETV
vector 87 DatabaseNetwork.user[16] WaitTime ETV
vector 88 DatabaseNetwork.user[1] ReadAccesses ETV
vector 89 DatabaseNetwork.user[1] WaitTime ETV
vector 90 DatabaseNetwork.user[70] WriteAccesses ETV
vector 91 DatabaseNetwork.user[17] WriteAccesses ETV
vector 92 DatabaseNetwork.user[70] WaitTime ETV
vector 93 DatabaseNetwork.user[17] WaitTime ETV
vector 94 DatabaseNetwork.user[5] ReadAccesses ETV
vector 95 DatabaseNetwork.user[12] WriteAccesses ETV
vector 96 DatabaseNetwork.user[5] WaitTime ETV
vector 97 DatabaseNetwork.user[12] WaitTime ETV
vector 98 DatabaseNetwork.user[61] WriteAccesses ETV
vector 99 DatabaseNetwork.user[21] WriteAccesses ETV
vector 100 DatabaseNetwork.user[61] WaitTime ETV
vector 101 DatabaseNetwork.user[21] WaitTime ETV
vector 102 DatabaseNetwork.user[46] WriteAccesses ETV
vector 103 DatabaseNetwork.user[46] WaitTime ETV
vector 104 DatabaseNetwork.user[17] ReadAccesses ETV
vector 105 DatabaseNetwork.user[14] ReadAccesses ETV
vector 106 DatabaseNetwork.user[14] WaitTime ETV
vector 107 DatabaseNetwork.user[25] ReadAccesses ETV
vector 108 DatabaseNetwork.user[25] WaitTime ETV
vector 109 DatabaseNetwork.user[54] ReadAccesses ETV
vector 110 DatabaseNetwork.user[54] WaitTime ETV
vector 111 DatabaseNetwork.user[20] WriteAccesses ETV
vector 112 DatabaseNetwork.user[15] ReadAccesses ETV
vector 113 DatabaseNetwork.user[15] WaitTime ETV
vector 114 DatabaseNetwork.user[53] ReadAccesses ETV
vector 115 DatabaseNetwork.user[36] ReadAccesses ETV
vector 116 DatabaseNetwork.user[53] WaitTime ETV
vector 117 DatabaseNetwork.user[36] WaitTime ETV
vector 118 DatabaseNetwork.user[45] WriteAccesses ETV
vector 119 DatabaseNetwork.user[70] ReadAccesses ETV
vector 120 DatabaseNetwork.user[26] WriteAccesses ETV
vector 121 DatabaseNetwork.user[45] WaitTime ETV
vector 122 DatabaseNetwork.user[26] WaitTime ETV
vector 123 DatabaseNetwork.user[40] ReadAccesses ETV
vector 124 DatabaseNetwork.user[32] ReadAccesses ETV
vector 125 DatabaseNetwork.user[40] WaitTime ETV
vector 126 DatabaseNetwork.user[4] WriteAccesses ETV
vector 127 DatabaseNetwork.user[4] WaitTime ETV
vector 128 DatabaseNetwork.user[15] WriteAccesses ETV
vector 129 DatabaseNetwork.user[41] WriteAccesses ETV
vector 130 DatabaseNetwork.user[52] WriteAccesses ETV
vector 131 DatabaseNetwork.user[41] WaitTime ETV
vector 132 DatabaseNetwork.user[52] WaitTime ETV
vector 133 DatabaseNetwork.user[63] WriteAccesses ETV
vector 134 DatabaseNetwork.user[63] WaitTime ETV
vector 135 DatabaseNetwork.user[27] ReadAccesses ETV
vector 136 DatabaseNetwork.user[27] WaitTime ETV
vector 137 DatabaseNetwork.user[68] WriteAccesses ETV
vector 138 DatabaseNetwork.user[68] WaitTime ETV
vector 139 DatabaseNetwork.user[56] WriteAccesses ETV
vector 140 DatabaseNetwork.user[56] WaitTime ETV
vector 141 DatabaseNetwork.user[67] WriteAccesses ETV
vector 142 DatabaseNetwork.user[67] WaitTime ETV
vector 143 DatabaseNetwork.user[37] ReadAccesses ETV
vector 144 DatabaseNetwork.user[37] WaitTime ETV
vector 145 DatabaseNetwork.user[71] WriteAccesses ETV
vector 146 DatabaseNetwork.user[61] ReadAccesses ETV
vector 147 DatabaseNetwork.user[38] WriteAccesses ETV
vector 148 DatabaseNetwork.user[71] WaitTime ETV
vector 149 DatabaseNetwork.user[59] WriteAccesses ETV
vector 150 DatabaseNetwork.user[38] WaitTime ETV
vector 151 DatabaseNetwork.user[69] WriteAccesses ETV
vector 152 DatabaseNetwork.user[69] WaitTime ETV
vector 153 DatabaseNetwork.user[9] ReadAccesses ETV
vector 154 DatabaseNetwork.user[9] WaitTime ETV
vector 155 DatabaseNetwork.user[44] ReadAccesses ETV
vector 156 DatabaseNetwork.user[18] WriteAccesses ETV
vector 157 DatabaseNetwork.user[44] WaitTime ETV
vector 158 DatabaseNetwork.user[18] WaitTime ETV
vector 159 DatabaseNetwork.user[23] ReadAccesses ETV
vector 160 DatabaseNetwork.user[47] WriteAccesses ETV
vector 161 DatabaseNetwork.user[23] WaitTime ETV
vector 162 DatabaseNetwork.user[22] WriteAccesses ETV
vector 163 DatabaseNetwork.user[47] WaitTime ETV
vector 164 DatabaseNetwork.user[22] WaitTime ETV
vector 165 DatabaseNetwork.user[14] WriteAccesses ETV
vector 166 DatabaseNetwork.user[29] ReadAccesses ETV
vector 167 DatabaseNetwork.user[29] WaitTime ETV
vector 168 DatabaseNetwork.user[6] WriteAccesses ETV
vector 169 DatabaseNetwork.user[6] WaitTime ETV
vector 170 DatabaseNetwork.user[23] WriteAccesses ETV
vector 171 DatabaseNetwork.user[71] ReadAccesses ETV
vector 172 DatabaseNetwork.user[48] ReadAccesses ETV
vector 173 DatabaseNetwork.user[48] WaitTime ETV
vector 174 DatabaseNetwork.user[0] WriteAccesses ETV
vector 175 DatabaseNetwork.user[39] WriteAccesses ETV
vector 176 DatabaseNetwork.user[0] WaitTime ETV
vector 177 DatabaseNetwork.user[9] WriteAccesses ETV
vector 178 DatabaseNetwork.user[39] WaitTime ETV
vector 179 DatabaseNetwork.user[74] ReadAccesses ETV
vector 180 DatabaseNetwork.user[34] WriteAccesses ETV
vector 181 DatabaseNetwork.user[74] WaitTime ETV
vector 182 DatabaseNetwork.user[34] WaitTime ETV
vector 183 DatabaseNetwork.user[7] WriteAccesses ETV
vector 184 DatabaseNetwork.user[7] WaitTime ETV
vector 185 DatabaseNetwork.user[43] ReadAccesses ETV
vector 186 DatabaseNetwork.user[43] WaitTime ETV
vector 187 DatabaseNetwork.user[30] ReadAccesses ETV
vector 188 DatabaseNetwork.user[30] WaitTime ETV
vector 189 DatabaseNetwork.user[74] WriteAccesses ETV
vector 190 DatabaseNetwork.user[46] ReadAccesses ETV
vector 191 DatabaseNetwork.user[24] WriteAccesses ETV
vector 192 DatabaseNetwork.user[24] WaitTime ETV
vector 193 DatabaseNetwork.user[72] ReadAccesses ETV
vector 194 DatabaseNetwork.user[72] WaitTime ETV
vector 195 DatabaseNetwork.user[69] ReadAccesses ETV
vector 196 DatabaseNetwork.user[26] ReadAccesses ETV
vector 197 DatabaseNetwork.user[62] WriteAccesses ETV
vector 198 DatabaseNetwork.user[27] WriteAccesses ETV
vector 199 DatabaseNetwork.user[62] WaitTime ETV
vector 200 DatabaseNetwork.user[56] ReadAccesses ETV
vector 201 DatabaseNetwork.user[45] ReadAccesses ETV
vector 202 DatabaseNetwork.user[28] ReadAccesses ETV
vector 203 DatabaseNetwork.user[28] WaitTime ETV
vector 204 DatabaseNetwork.user[37] WriteAccesses ETV
vector 205 DatabaseNetwork.user[62] ReadAccesses ETV
vector 206 DatabaseNetwork.user[67] ReadAccesses ETV
vector 207 DatabaseNetwork.user[7] ReadAccesses ETV
vector 208 DatabaseNetwork.user[42] ReadAccesses ETV
vector 209 DatabaseNetwork.user[63] ReadAccesses ETV
vector 210 DatabaseNetwork.user[42] WaitTime ETV
vector 211 DatabaseNetwork.user[19] ReadAccesses ETV
vector 212 DatabaseNetwork.user[19] WaitTime ETV
vector 213 DatabaseNetwork.user[2] WriteAccesses ETV
vector 214 DatabaseNetwork.user[2] WaitTime ETV
vector 215 DatabaseNetwork.user[28] WriteAccesses ETV
vector 216 DatabaseNetwork.user[6] ReadAccesses ETV
vector 217 DatabaseNetwork.user[57] WriteAccesses ETV
vector 218 DatabaseNetwork.user[57] WaitTime ETV
vector 219 DatabaseNetwork.user[1] WriteAccesses ETV
vector 220 DatabaseNetwork.user[49] WriteAccesses ETV
vector 221 DatabaseNetwork.user[49] WaitTime ETV
vector 222 DatabaseNetwork.user[54] WriteAccesses ETV
vector 223 DatabaseNetwork.user[33] ReadAccesses ETV
vector 224 DatabaseNetwork.user[33] WaitTime ETV
vector 225 DatabaseNetwork.user[36] WriteAccesses ETV
vector 226 DatabaseNetwork.user[19] WriteAccesses ETV
vector 227 DatabaseNetwork.user[50] WriteAccesses ETV
vector 228 DatabaseNetwork.user[50] WaitTime ETV
vector 229 DatabaseNetwork.user[73] WriteAccesses ETV
vector 230 DatabaseNetwork.user[73] WaitTime ETV
vector 231 DatabaseNetwork.user[65] WriteAccesses ETV
vector 232 DatabaseNetwork.user[65] WaitTime ETV
vector 233 DatabaseNetwork.user[30] WriteAccesses ETV
vector 234 DatabaseNetwork.user[51] WriteAccesses ETV
vector 235 DatabaseNetwork.user[51] WaitTime ETV
vector 236 DatabaseNetwork.user[72] WriteAccesses ETV
vector 237 DatabaseNetwork.user[40] WriteAccesses ETV
vector 238 DatabaseNetwork.user[3] ReadAccesses ETV
vector 239 DatabaseNetwork.user[3] WaitTime ETV
vector 240 DatabaseNetwork.user[66] ReadAccesses ETV
vector 241 DatabaseNetwork.user[66] WaitTime ETV
vector 242 DatabaseNetwork.user[25] WriteAccesses ETV
vector 243 DatabaseNetwork.user[13] ReadAccesses ETV
vector 244 DatabaseNetwork.user[51] ReadAccesses ETV
vector 245 DatabaseNetwork.user[12] ReadAccesses ETV
vector 246 DatabaseNetwork.user[53] WriteAccesses ETV
vector 247 DatabaseNetwork.user[8] WriteAccesses ETV
vector 248 DatabaseNetwork.user[55] WriteAccesses ETV
vector 249 DatabaseNetwork.user[8] WaitTime ETV
vector 250 DatabaseNetwork.user[55] WaitTime ETV
vector 251 DatabaseNetwork.user[10] ReadAccesses ETV
vector 252 DatabaseNetwork.user[10] WaitTime ETV
vector 253 DatabaseNetwork.user[64] ReadAccesses ETV
vector 254 DatabaseNetwork.user[64] WaitTime ETV
vector 255 DatabaseNetwork.user[10] WriteAccesses ETV
vector 256 DatabaseNetwork.user[68] ReadAccesses ETV
vector 257 DatabaseNetwork.user[31] ReadAccesses ETV
vector 258 DatabaseNetwork.user[31] WaitTime ETV
vector 259 DatabaseNetwork.user[33] WriteAccesses ETV
vector 260 DatabaseNetwork.user[64] WriteAccesses ETV
vector 261 DatabaseNetwork.user[34] ReadAccesses ETV
vector 262 DatabaseNetwork.user[43] WriteAccesses ETV
vector 263 DatabaseNetwork.user[16] ReadAccesses ETV
vector 264 DatabaseNetwork.user[58] ReadAccesses ETV
vector 265 DatabaseNetwork.user[58] WaitTime ETV
vector 266 DatabaseNetwork.user[49] ReadAccesses ETV
vector 267 DatabaseNetwork.user[52] ReadAccesses ETV
vector 268 DatabaseNetwork.user[38] ReadAccesses ETV
vector 269 DatabaseNetwork.user[0] ReadAccesses ETV
vector 270 DatabaseNetwork.user[42] WriteAccesses ETV
vector 271 DatabaseNetwork.user[29] WriteAccesses ETV
vector 272 DatabaseNetwork.user[44] WriteAccesses ETV
vector 273 DatabaseNetwork.user[58] WriteAccesses ETV
vector 274 DatabaseNetwork.user[66] WriteAccesses ETV
vector 275 DatabaseNetwork.user[18] ReadAccesses ETV
vector 276 DatabaseNetwork.user[55] ReadAccesses ETV
vector 277 DatabaseNetwork.user[41] ReadAccesses ETV
vector 278 DatabaseNetwork.user[31] WriteAccesses ETV
vector 279 DatabaseNetwork.user[50] ReadAccesses ETV
vector 280 DatabaseNetwork.user[35] WriteAccesses ETV
vector 281 DatabaseNetwork.user[35] WaitTime ETV
vector 282 DatabaseNetwork.user[60] ReadAccesses ETV
vector 283 DatabaseNetwork.user[60] WaitTime ETV
vector 284 DatabaseNetwork.user[39] ReadAccesses ETV
vector 285 DatabaseNetwork.user[3] WriteAccesses ETV
vector 286 DatabaseNetwork.user[65] ReadAccesses ETV
vector 287 DatabaseNetwork.user[48] WriteAccesses ETV
vector 288 DatabaseNetwork.user[60] WriteAccesses ETV
vector 289 DatabaseNetwork.user[73] ReadAccesses ETV
vector 290 DatabaseNetwork.user[8] ReadAccesses ETV
vector 291 DatabaseNetwork.user[24] ReadAccesses ETV
vector 292 DatabaseNetwork.user[22] ReadAccesses ETV
vector 293 DatabaseNetwork.user[57] ReadAccesses ETV
vector 294 DatabaseNetwork.user[4] ReadAccesses ETV
vector 295 DatabaseNetwork.user[5] WriteAccesses ETV
vector 296 DatabaseNetwork.user[21] ReadAccesses ETV
vector 297 DatabaseNetwork.user[2] ReadAccesses ETV
vector 298 DatabaseNetwork.user[47] ReadAccesses ETV
vector 299 DatabaseNetwork.user[35] ReadAccesses ETV
0	16769 19918 0 149209 0 9968.941114294045 476 0.11948637483863 241.15209767689 10040.493976879 465472.09499167
1	36687 20873 0 149649 0 9996.813001490584 498 0.002484862450249 132.07285610907 10048.66101451 398466.37780305
2	57560 19286 0 149525 0 9988.371634464623 459 0.0028574132938234 113.40246577072 10007.557608637 426596.71700887
3	76846 20828 0 149611 0 9993.857207185957 496 0.0322840716133 130.33907440585 10018.00959546 428484.97516303
4	97674 20332 0 149521 0 9988.131048910344 485 0.0013090725988186 140.78168721962 10007.434639373 427477.97376428
5	118006 22172 0 149439 0 9983.425617896136 529 0.026902406500338 130.73676339269 10052.226053845 375807.83827791
6	140178 19989 0 149513 0 9987.472558523588 477 0.063562181009157 134.62761487223 10016.51872902 416921.01019407
7	160167 20665 0 149689 0 9998.787288471047 493 0.0016337275926396 159.58094837757 10027.812971481 412198.48845182
8	180832 21390 0 149497 0 9987.014536191274 510 0.053689651599521 102.7467212484 10038.386135537 379381.81113447
9	202222 22397 0 149587 0 9991.724681975971 533 0.011003459353306 114.20617933268 10051.515204502 362707.94548596
10	224619 21342 0 149297 0 9974.851682104171 498 0.08302544972363 145.19175631348 10029.898396243 413568.34238534
11	245961 22272 0 149657 0 9997.428681617094 519 0.0015927693787653 121.9172991873 10017.652806952 374614.83163116
12	268233 21528 0 149533 0 9988.60728250627 501 0.098001194292055 146.54281736201 10015.725887526 419667.43644157
13	289761 21723 0 149429 0 9983.156112938188 506 0.010431260215483 120.23896588771 10020.587374173 405701.00133623
14	311484 21066 0 149561 0 9989.953140823093 491 0.017097307941316 144.60994151389 10016.508977569 419970.99674825
15	332550 21258 0 148763 0 9943.054240151591 495 0.064284099015941 102.86699322038 10035.253168264 402395.4972483
16	353808 20517 0 149281 0 9973.45675758966 478 0.00025057856504704 113.78693425147 10015.717722778 399650.49356146
17	374325 22577 0 149677 0 9998.216168196856 525 0.053272576549333 167.5859426027 10011.734667043 372470.8829739
18	396902 21853 0 149625 0 9994.926299796667 509 0.07879202816006 107.41772906847 10010.401836722 366206.22572977
19	418755 22022 0 149545 0 9989.033584154144 513 0.07454856065703 119.53997948476 10025.976011277 401681.86073792
20	440777 21889 0 149541 0 9988.999260316984 510 0.0045329579447031 116.89816264797 10014.768257367 384315.51401386
21	462666 19040 0 149481 0 9985.3115167714 444 0.0031540142561732 129.71170347548 10021.579221653 429938.54298262
22	481706 21417 0 149437 0 9983.412521895691 498 0.0075351949433343 117.06228537946 10003.940039475 384329.16733013
23	503123 21590 0 149605 0 9993.503108620895 503 0.080046265595929 113.16803339516 10000.522222883 388249.36574457
24	524713 21173 0 148975 0 9953.918397285494 493 0.021943590612587 127.40466183442 10003.707534275 401591.3131293
25	545886 21912 0 149661 0 9997.615772458835 510 0.14827926286778 141.95219701223 10007.632743316 375691.47156377
26	567798 21882 0 149573 0 9990.420435943146 510 0.029124224741501 107.80882657867 10060.87037356 382136.93754788
27	589680 20104 0 149577 0 9990.544838850057 469 0.06992453905805 161.84745901068 10060.128192396 419387.44336932
28	609784 22389 0 149527 0 9988.403768556674 522 0.018609378745995 120.99486229913 10039.878277597 380192.94439606
29	632173 19545 0 149679 0 9998.263572580411 456 0.084999537138295 136.28102887738 10001.111490909 427826.85470091
30	651718 21102 0 149703 0 9999.249454255275 492 0.1377774569605 85.359443654482 10029.800962414 373592.37847254
31	672820 21855 0 149699 0 9999.163183964841 509 0.0060110677396255 144.07725109428 10035.900125835 433808.06632961
32	694675 21277 0 149697 0 9999.110839400215 496 0.035601097489919 118.14223008553 10022.084199699 391022.93938184
33	715952 19425 0 149185 0 9968.427087467727 453 0.16767195123415 158.04009944024 10022.04855984 430524.462887
34	735377 21793 0 149011 0 9956.619044141244 507 0.0061460201372557 119.4764666814 10012.682529128 395655.83170785
35	757170 21106 0 149499 0 9987.031839374047 491 0.0081181934906992 138.33556143431 10006.228160411 436419.11263981
36	778276 21665 0 149231 0 9969.471470705504 504 0.0067687078464852 137.36011817317 10004.216160709 386319.46210833
37	799941 21543 0 149187 0 9968.446753063695 502 0.042157302490277 158.90400484138 10008.889405419 400315.64303214
38	821484 22494 0 149493 0 9986.751828502338 524 0.044024851799278 105.70355367007 10023.301996126 372323.90358522
39	843978 21095 0 149583 0 9991.648153827759 492 0.090437495344536 129.25601083832 10071.338836063 398109.06075347
40	865073 21348 0 149581 0 9991.557503144321 497 0.03471060479247 144.84749518584 10136.40499833 411568.18125835
41	886421 22426 0 149515 0 9987.495624108873 522 0.020119881147941 166.22247997431 10039.915075368 384503.94447926
42	908847 23309 0 149219 0 9969.295668285573 542 0.0054157453199043 113.89053071471 10049.99482988 378743.02435359
43	932156 21410 0 148493 0 9925.300689985188 498 0.038283763507907 222.46098189218 10147.761671877 459491.37298674
44	953566 22254 0 149249 0 9970.895836309051 519 0.014898243035215 118.98605705038 10004.052326675 391063.48180618
45	975820 21934 0 149645 0 9996.113287334326 511 0.023153894906366 119.50797974796 10053.141222804 367571.42675695
46	997754 20517 0 149153 0 9965.442179195548 478 0.10480884376984 140.26437818738 10105.706557383 443108.05095471
47	1018271 22454 0 149453 0 9984.184326290288 522 0.031517442327363 141.89935998717 10012.728676145 381852.10563743
48	1040725 22036 0 149365 0 9980.040464853228 513 0.025373119338906 138.8344937542 10004.293688737 390117.96651111
49	1062761 21221 0 149245 0 9970.578607202229 494 0.037447913047065 118.2756324145 10062.072324209 392071.45898283
50	1083982 20322 0 148627 0 9934.007417835681 473 0.025111688649682 124.0672332975 10009.19850217 435599.00009192
51	1104304 20408 0 149421 0 9982.884661710166 475 0.0093462359864198 138.18968424379 10018.412040833 396751.83081914
52	1124712 21324 0 148897 0 9950.037069934993 496 0.078418733352497 142.43677202105 10010.416114837 404767.24739023
53	1146036 21640 0 149693 0 9998.97023275381 504 0.047600202566262 140.27623659135 10000.831987444 382710.00342614
54	1167676 21748 0 149555 0 9989.218231384127 506 0.072848230845257 101.64411925187 10002.819834422 373823.1691942
55	1189424 21837 0 149485 0 9985.578591034277 509 0.10250273050034 141.99187850822 10029.511039713 375716.2559674
56	1211261 21304 0 149629 0 9994.975610736496 497 0.079323385715621 113.54324712692 10003.707559802 385836.13699968
57	1232565 21491 0 149503 0 9987.124731844181 500 0.13298507637601 101.09039074135 10039.797777316 372815.37723226
58	1254056 22052 0 149669 0 9997.842857349281 514 0.085918975513018 109.81981552722 10021.898636082 390571.94027714
59	1276108 22187 0 149641 0 9995.282833970721 516 0.010611659143972 106.43727162873 10017.916065227 369178.92773878
60	1298295 21067 0 149269 0 9972.144050681746 490 0.033357611881899 134.86634513778 10042.695297849 416477.20006507
61	1319362 21880 0 149617 0 9994.585943145103 510 0.032944025049189 124.34164981153 10010.920467166 396042.83727892
62	1341242 19429 0 148289 0 9911.741647085559 453 0.0030677929717917 133.49979146686 10002.465653529 464102.18345913
63	1360671 21843 0 148721 0 9939.180892285191 508 0.018108533557712 152.89191863406 10014.549642411 393761.42716178
64	1382514 24431 0 149707 0 9999.318946144288 569 0.019894816216929 175.70827130538 10009.161288524 368766.24007362
65	1406945 20075 0 149353 0 9978.08477405582 467 0.082211788960819 146.82123172088 10077.280846651 466265.47649028
66	1427020 20779 0 149621 0 9994.838061568702 483 0.10598971373624 130.46379083659 10029.246360912 420463.14727366
67	1447799 23078 0 149361 0 9979.368509765048 537 0.009578603778767 204.89377739807 10011.637767063 400797.84346792
68	1470877 22228 0 149265 0 9972.126364533994 518 0.016808614106427 123.13627207646 10009.992262183 381889.55733177
69	1493105 20420 0 149673 0 9998.037035571394 476 0.090837093325965 160.98298204949 10005.523836847 431735.57569826
70	1513525 21339 0 148807 0 9945.12855279271 497 0.019914342191403 140.86468137091 10018.609091599 400006.58247763
71	1534864 21507 0 149305 0 9975.236333713833 501 0.019199840980563 194.01532493623 10019.797169174 407096.3622005
72	1556371 22590 0 149609 0 9993.834280219322 527 0.0048824538047472 162.29201651484 10005.742325028 402087.55760132
73	1578961 22012 0 146949 0 9820.031354182147 512 0.054746355053547 194.62974105996 10014.661095242 402574.55599972
74	1600973 21158 0 149537 0 9988.824009421089 493 0.082875996483943 181.10103667129 10024.970528179 405815.52625721
75	1622131 7847 1 149473 0.378519642865 9984.774426357472 270 1 1 270 270
76	1629978 7871 3 149463 0.416598937377 9984.531007216724 271 1 1 271 271
77	1637849 22993 6 149660 0.478519642865 9997.528681617094 518 0.099999999998545 0.197138595745 52.118358635757 5.2649105808118
78	1660842 6789 7 149697 0.485482608732 9999.110839400215 234 1 1 234 234
79	1667631 22873 10 149644 0.516598937377 9995.382833970721 515 0.099999999998545 0.18600508232703 51.766357450893 5.2208382905769
80	1690504 21929 12 149702 0.585482608732 9999.210839400215 495 0.099999999998545 0.15004013709495 49.734500073088 5.0052125755673
81	1712433 7369 13 149541 0.606631994795 9988.999260316984 254 1 1 254 254
82	1719802 22560 16 149548 0.706631994795 9989.099260316984 509 0.099999999998545 0.19183634201909 51.488006803846 5.2502976483272
83	1742362 7370 17 149429 0.829584574702 9983.156112938188 254 1 1 254 254
84	1749732 7178 19 149657 0.84629905271 9997.428681617094 248 1 1 248 248
85	1756910 22448 22 149434 0.929584574702 9983.256112938188 505 0.099999999998545 0.1755386747609 50.768051952243 5.1187535263298
86	1779358 7828 25 149281 1.05677835357 9973.45675758966 270 1 1 270 270
87	1787186 21182 28 149284 1.15677835357 9973.55675758966 477 0.099999999998545 0.19294228037779 48.172551077917 4.8941762020621
88	1808368 6766 29 148113 1.467008759288 9900.582857130279 233 1 1 233 233
89	1815134 22072 32 149652 1.567008759288 9996.913001490584 497 0.099999999998545 0.19436984859567 50.061915444246 5.0679306318502
90	1837206 7278 33 147023 1.934998565197 9823.381926796986 250 1 1 250 250
91	1844484 7853 35 149313 1.964421148736 9975.455230836235 270 1 1 270 270
92	1852337 22052 38 148818 2.034998565197 9945.22855279271 496 0.099999999998545 0.15683942709711 49.724846446163 4.9907449657984
93	1874389 23300 40 149682 2.064421148736 9998.316168196856 524 0.099999999998545 0.19712670322087 52.996248745682 5.4007706528914
94	1897689 8141 41 149345 2.586885229816 9977.065079995095 281 1 1 281 281
95	1905830 7487 43 148851 2.684010980209 9946.869469243861 258 1 1 258 258
96	1913317 23449 46 149446 2.686885229816 9983.525617896136 528 0.099999999998545 0.19269386026099 53.379997962548 5.4342743743
97	1936766 22230 48 149536 2.784010980209 9988.70728250627 500 0.099999999998545 0.18648009866774 50.223597824645 5.0571201775681
98	1958996 7165 51 149601 3.079751552139 9993.128532162695 247 1 1 247 247
99	1966161 5921 55 149341 3.141736494925 9976.954846142226 204 1 1 204 204
100	1972082 23078 58 149620 3.179751552139 9994.685943145103 509 0.099999999998545 0.19908055088854 51.190105545038 5.168762211216
101	1995160 20127 60 149484 3.241736494925 9985.4115167714 443 0.099999999998545 0.18526401921372 44.456160714838 4.4711703096798
102	2015287 7393 61 149123 3.412628840718 9963.412495716204 246 1 1 246 246
103	2022680 21639 64 149158 3.512628840718 9965.542179195548 477 0.099999999998545 0.19664802535317 47.999716856036 4.8526368251731
104	2044319 7648 65 149677 3.789834229175 9998.216168196856 254 1 1 254 254
105	2051967 8043 69 149199 4.644767649377 9968.679198694553 268 1 1 268 268
106	2060010 22214 72 149564 4.744767649377 9990.053140823093 490 0.099999999998545 0.18465550606197 49.324855159351 4.9889319748475
107	2082224 7726 73 149661 4.856137582298 9997.615772458835 257 1 1 257 257
108	2089950 23082 76 149664 4.956137582298 9997.715772458835 509 0.099999999998545 0.19492564363782 51.104273957444 5.1450001057324
109	2113032 7469 77 149555 5.019492458623 9989.218231384127 248 1 1 248 248
110	2120501 22942 80 149560 5.119492458623 9989.318231384127 505 0.099999999998545 0.18756306986961 51.127207331932 5.2153199800174
111	2143443 7644 81 149217 5.153542561948 9969.274739012631 255 1 1 255 255
112	2151087 7034 87 148763 5.697408622634 9943.054240151591 234 1 1 234 234
113	2158121 22442 92 148768 5.797408622634 9943.154240151591 494 0.099999999998545 0.19148820735586 49.628352900222 5.0023516632331
114	2180563 7829 95 149693 5.956945718964 9998.97023275381 261 1 1 261 261
115	2188392 7960 97 149231 6.001907866846 9969.471470705504 265 1 1 265 265
116	2196352 22805 102 149696 6.056945718964 9999.07023275381 503 0.099999999998545 0.19402213490139 50.593134746716 5.1087917865561
117	2219157 22858 104 149236 6.101907866846 9969.571470705504 503 0.099999999998545 0.18507509639198 50.730071258471 5.1418930500595
118	2242015 7911 105 147257 6.429468674703 9839.487972889313 263 1 1 263 263
119	2249926 7366 107 148807 6.43236718381 9945.12855279271 246 1 1 246 246