version 3
run Uniform-6-20260105-17:01:01-25051
attr configname Uniform
attr datetime 20260105-17:01:01
attr datetimef 20260105-170101
attr experiment Uniform
attr inifile omnetpp.ini
attr iterationvars "$N=50, $p=0.5"
attr iterationvarsd N=50/p=0.5
attr iterationvarsf N=50,p=0.5-
attr measurement "$N=50, $p=0.5"
attr network progetto.DatabaseNetwork
attr processid 25051
attr repetition 1
attr replication #1
attr resultdir results
attr runnumber 6
attr seedset 1
itervar N 50
itervar p 0.5
config description "Uniform distribution - varia N e p"
config *.user[*].tableDistribution "\"uniform\""
config *.numUsers 50
config *.user[*].readProbability 0.5
config network progetto.DatabaseNetwork
config sim-time-limit 10000s
config cpu-time-limit 3600s
config repeat 5
config seed-set 1
config output-vector-file "results/Uniform-$N=50, $p=0.5-1.vec"
config output-scalar-file "results/Uniform-$N=50, $p=0.5-1.sca"
config result-dir results
config **.vector-recording true
config **.scalar-recording true
config *.numTables 20
config *.user[*].lambda 0.05
config *.user[*].serviceTime 0.1s

vector 0 DatabaseNetwork.user[0] AccessInterval ETV
vector 1 DatabaseNetwork.user[1] AccessInterval ETV
vector 2 DatabaseNetwork.user[2] AccessInterval ETV
vector 3 DatabaseNetwork.user[3] AccessInterval ETV
vector 4 DatabaseNetwork.user[4] AccessInterval ETV
vector 5 DatabaseNetwork.user[5] AccessInterval ETV
vector 6 DatabaseNetwork.user[6] AccessInterval ETV
vector 7 DatabaseNetwork.user[7] AccessInterval ETV
vector 8 DatabaseNetwork.user[8] AccessInterval ETV
vector 9 DatabaseNetwork.user[9] AccessInterval ETV
vector 10 DatabaseNetwork.user[10] AccessInterval ETV
vector 11 DatabaseNetwork.user[11] AccessInterval ETV
vector 12 DatabaseNetwork.user[12] AccessInterval ETV
vector 13 DatabaseNetwork.user[13] AccessInterval ETV
vector 14 DatabaseNetwork.user[14] AccessInterval ETV
vector 15 DatabaseNetwork.user[15] AccessInterval ETV
vector 16 DatabaseNetwork.user[16] AccessInterval ETV
vector 17 DatabaseNetwork.user[17] AccessInterval ETV
vector 18 DatabaseNetwork.user[18] AccessInterval ETV
vector 19 DatabaseNetwork.user[19] AccessInterval ETV
vector 20 DatabaseNetwork.user[20] AccessInterval ETV
vector 21 DatabaseNetwork.user[21] AccessInterval ETV
vector 22 DatabaseNetwork.user[22] AccessInterval ETV
vector 23 DatabaseNetwork.user[23] AccessInterval ETV
vector 24 DatabaseNetwork.user[24] AccessInterval ETV
vector 25 DatabaseNetwork.user[25] AccessInterval ETV
vector 26 DatabaseNetwork.user[26] AccessInterval ETV
vector 27 DatabaseNetwork.user[27] AccessInterval ETV
vector 28 DatabaseNetwork.user[28] AccessInterval ETV
vector 29 DatabaseNetwork.user[29] AccessInterval ETV
vector 30 DatabaseNetwork.user[30] AccessInterval ETV
vector 31 DatabaseNetwork.user[31] AccessInterval ETV
vector 32 DatabaseNetwork.user[32] AccessInterval ETV
vector 33 DatabaseNetwork.user[33] AccessInterval ETV
vector 34 DatabaseNetwork.user[34] AccessInterval ETV
vector 35 DatabaseNetwork.user[35] AccessInterval ETV
vector 36 DatabaseNetwork.user[36] AccessInterval ETV
vector 37 DatabaseNetwork.user[37] AccessInterval ETV
vector 38 DatabaseNetwork.user[38] AccessInterval ETV
vector 39 DatabaseNetwork.user[39] AccessInterval ETV
vector 40 DatabaseNetwork.user[40] AccessInterval ETV
vector 41 DatabaseNetwork.user[41] AccessInterval ETV
vector 42 DatabaseNetwork.user[42] AccessInterval ETV
vector 43 DatabaseNetwork.user[43] AccessInterval ETV
vector 44 DatabaseNetwork.user[44] AccessInterval ETV
vector 45 DatabaseNetwork.user[45] AccessInterval ETV
vector 46 DatabaseNetwork.user[46] AccessInterval ETV
vector 47 DatabaseNetwork.user[47] AccessInterval ETV
vector 48 DatabaseNetwork.user[48] AccessInterval ETV
vector 49 DatabaseNetwork.user[49] AccessInterval ETV
vector 50 DatabaseNetwork.user[4] ReadAccesses ETV
vector 51 DatabaseNetwork.user[4] WaitTime ETV
vector 52 DatabaseNetwork.user[28] ReadAccesses ETV
vector 53 DatabaseNetwork.user[28] WaitTime ETV
vector 54 DatabaseNetwork.user[10] WriteAccesses ETV
vector 55 DatabaseNetwork.user[45] ReadAccesses ETV
vector 56 DatabaseNetwork.user[10] WaitTime ETV
vector 57 DatabaseNetwork.user[45] WaitTime ETV
vector 58 DatabaseNetwork.user[5] WriteAccesses ETV
vector 59 DatabaseNetwork.user[5] WaitTime ETV
vector 60 DatabaseNetwork.user[36] ReadAccesses ETV
vector 61 DatabaseNetwork.user[36] WaitTime ETV
vector 62 DatabaseNetwork.user[8] WriteAccesses ETV
vector 63 DatabaseNetwork.user[8] WaitTime ETV
vector 64 DatabaseNetwork.user[12] ReadAccesses ETV
vector 65 DatabaseNetwork.user[12] WaitTime ETV
vector 66 DatabaseNetwork.user[28] WriteAccesses ETV
vector 67 DatabaseNetwork.user[38] WriteAccesses ETV
vector 68 DatabaseNetwork.user[38] WaitTime ETV
vector 69 DatabaseNetwork.user[24] ReadAccesses ETV
vector 70 DatabaseNetwork.user[24] WaitTime ETV
vector 71 DatabaseNetwork.user[27] ReadAccesses ETV
vector 72 DatabaseNetwork.user[27] WaitTime ETV
vector 73 DatabaseNetwork.user[9] ReadAccesses ETV
vector 74 DatabaseNetwork.user[9] WaitTime ETV
vector 75 DatabaseNetwork.user[12] WriteAccesses ETV
vector 76 DatabaseNetwork.user[5] ReadAccesses ETV
vector 77 DatabaseNetwork.user[6] ReadAccesses ETV
vector 78 DatabaseNetwork.user[6] WaitTime ETV
vector 79 DatabaseNetwork.user[21] ReadAccesses ETV
vector 80 DatabaseNetwork.user[44] ReadAccesses ETV
vector 81 DatabaseNetwork.user[21] WaitTime ETV
vector 82 DatabaseNetwork.user[44] WaitTime ETV
vector 83 DatabaseNetwork.user[14] ReadAccesses ETV
vector 84 DatabaseNetwork.user[14] WaitTime ETV
vector 85 DatabaseNetwork.user[13] WriteAccesses ETV
vector 86 DatabaseNetwork.user[13] WaitTime ETV
vector 87 DatabaseNetwork.user[11] WriteAccesses ETV
vector 88 DatabaseNetwork.user[16] ReadAccesses ETV
vector 89 DatabaseNetwork.user[11] WaitTime ETV
vector 90 DatabaseNetwork.user[16] WaitTime ETV
vector 91 DatabaseNetwork.user[36] WriteAccesses ETV
vector 92 DatabaseNetwork.user[0] WriteAccesses ETV
vector 93 DatabaseNetwork.user[32] ReadAccesses ETV
vector 94 DatabaseNetwork.user[20] WriteAccesses ETV
vector 95 DatabaseNetwork.user[0] WaitTime ETV
vector 96 DatabaseNetwork.user[32] WaitTime ETV
vector 97 DatabaseNetwork.user[20] WaitTime ETV
vector 98 DatabaseNetwork.user[35] WriteAccesses ETV
vector 99 DatabaseNetwork.user[35] WaitTime ETV
vector 100 DatabaseNetwork.user[25] WriteAccesses ETV
vector 101 DatabaseNetwork.user[25] WaitTime ETV
vector 102 DatabaseNetwork.user[33] WriteAccesses ETV
vector 103 DatabaseNetwork.user[33] WaitTime ETV
vector 104 DatabaseNetwork.user[32] WriteAccesses ETV
vector 105 DatabaseNetwork.user[38] ReadAccesses ETV
vector 106 DatabaseNetwork.user[47] WriteAccesses ETV
vector 107 DatabaseNetwork.user[47] WaitTime ETV
vector 108 DatabaseNetwork.user[11] ReadAccesses ETV
vector 109 DatabaseNetwork.user[23] WriteAccesses ETV
vector 110 DatabaseNetwork.user[23] WaitTime ETV
vector 111 DatabaseNetwork.user[29] WriteAccesses ETV
vector 112 DatabaseNetwork.user[29] WaitTime ETV
vector 113 DatabaseNetwork.user[18] WriteAccesses ETV
vector 114 DatabaseNetwork.user[18] WaitTime ETV
vector 115 DatabaseNetwork.user[34] ReadAccesses ETV
vector 116 DatabaseNetwork.user[34] WaitTime ETV
vector 117 DatabaseNetwork.user[33] ReadAccesses ETV
vector 118 DatabaseNetwork.user[35] ReadAccesses ETV
vector 119 DatabaseNetwork.user[15] ReadAccesses ETV
vector 120 DatabaseNetwork.user[30] ReadAccesses ETV
vector 121 DatabaseNetwork.user[15] WaitTime ETV
vector 122 DatabaseNetwork.user[30] WaitTime ETV
vector 123 DatabaseNetwork.user[18] ReadAccesses ETV
vector 124 DatabaseNetwork.user[22] ReadAccesses ETV
vector 125 DatabaseNetwork.user[22] WaitTime ETV
vector 126 DatabaseNetwork.user[13] ReadAccesses ETV
vector 127 DatabaseNetwork.user[46] WriteAccesses ETV
vector 128 DatabaseNetwork.user[46] WaitTime ETV
vector 129 DatabaseNetwork.user[10] ReadAccesses ETV
vector 130 DatabaseNetwork.user[45] WriteAccesses ETV
vector 131 DatabaseNetwork.user[41] ReadAccesses ETV
vector 132 DatabaseNetwork.user[41] WaitTime ETV
vector 133 DatabaseNetwork.user[23] ReadAccesses ETV
vector 134 DatabaseNetwork.user[2] ReadAccesses ETV
vector 135 DatabaseNetwork.user[2] WaitTime ETV
vector 136 DatabaseNetwork.user[30] WriteAccesses ETV
vector 137 DatabaseNetwork.user[6] WriteAccesses ETV
vector 138 DatabaseNetwork.user[46] ReadAccesses ETV
vector 139 DatabaseNetwork.user[0] ReadAccesses ETV
vector 140 DatabaseNetwork.user[14] WriteAccesses ETV
vector 141 DatabaseNetwork.user[15] WriteAccesses ETV
vector 142 DatabaseNetwork.user[39] ReadAccesses ETV
vector 143 DatabaseNetwork.user[39] WaitTime ETV
vector 144 DatabaseNetwork.user[44] WriteAccesses ETV
vector 145 DatabaseNetwork.user[40] ReadAccesses ETV
vector 146 DatabaseNetwork.user[40] WaitTime ETV
vector 147 DatabaseNetwork.user[43] WriteAccesses ETV
vector 148 DatabaseNetwork.user[43] WaitTime ETV
vector 149 DatabaseNetwork.user[4] WriteAccesses ETV
vector 150 DatabaseNetwork.user[19] WriteAccesses ETV
vector 151 DatabaseNetwork.user[19] WaitTime ETV
vector 152 DatabaseNetwork.user[19] ReadAccesses ETV
vector 153 DatabaseNetwork.user[49] WriteAccesses ETV
vector 154 DatabaseNetwork.user[49] WaitTime ETV
vector 155 DatabaseNetwork.user[48] ReadAccesses ETV
vector 156 DatabaseNetwork.user[48] WaitTime ETV
vector 157 DatabaseNetwork.user[26] ReadAccesses ETV
vector 158 DatabaseNetwork.user[26] WaitTime ETV
vector 159 DatabaseNetwork.user[34] WriteAccesses ETV
vector 160 DatabaseNetwork.user[22] WriteAccesses ETV
vector 161 DatabaseNetwork.user[31] ReadAccesses ETV
vector 162 DatabaseNetwork.user[31] WaitTime ETV
vector 163 DatabaseNetwork.user[9] WriteAccesses ETV
vector 164 DatabaseNetwork.user[26] WriteAccesses ETV
vector 165 DatabaseNetwork.user[3] ReadAccesses ETV
vector 166 DatabaseNetwork.user[3] WaitTime ETV
vector 167 DatabaseNetwork.user[17] ReadAccesses ETV
vector 168 DatabaseNetwork.user[17] WaitTime ETV
vector 169 DatabaseNetwork.user[37] ReadAccesses ETV
vector 170 DatabaseNetwork.user[37] WaitTime ETV
vector 171 DatabaseNetwork.user[17] WriteAccesses ETV
vector 172 DatabaseNetwork.user[2] WriteAccesses ETV
vector 173 DatabaseNetwork.user[31] WriteAccesses ETV
vector 174 DatabaseNetwork.user[40] WriteAccesses ETV
vector 175 DatabaseNetwork.user[8] ReadAccesses ETV
vector 176 DatabaseNetwork.user[24] WriteAccesses ETV
vector 177 DatabaseNetwork.user[49] ReadAccesses ETV
vector 178 DatabaseNetwork.user[42] WriteAccesses ETV
vector 179 DatabaseNetwork.user[42] WaitTime ETV
vector 180 DatabaseNetwork.user[21] WriteAccesses ETV
vector 181 DatabaseNetwork.user[47] ReadAccesses ETV
vector 182 DatabaseNetwork.user[3] WriteAccesses ETV
vector 183 DatabaseNetwork.user[43] ReadAccesses ETV
vector 184 DatabaseNetwork.user[37] WriteAccesses ETV
vector 185 DatabaseNetwork.user[41] WriteAccesses ETV
vector 186 DatabaseNetwork.user[29] ReadAccesses ETV
vector 187 DatabaseNetwork.user[42] ReadAccesses ETV
vector 188 DatabaseNetwork.user[16] WriteAccesses ETV
vector 189 DatabaseNetwork.user[1] WriteAccesses ETV
vector 190 DatabaseNetwork.user[1] WaitTime ETV
vector 191 DatabaseNetwork.user[48] WriteAccesses ETV
vector 192 DatabaseNetwork.user[25] ReadAccesses ETV
vector 193 DatabaseNetwork.user[20] ReadAccesses ETV
vector 194 DatabaseNetwork.user[1] ReadAccesses ETV
vector 195 DatabaseNetwork.user[7] ReadAccesses ETV
vector 196 DatabaseNetwork.user[7] WaitTime ETV
vector 197 DatabaseNetwork.user[39] WriteAccesses ETV
vector 198 DatabaseNetwork.user[27] WriteAccesses ETV
vector 199 DatabaseNetwork.user[7] WriteAccesses ETV
0	0	0	10.792116530237
0	101	10.792116530237	15.564874383165
0	265	26.356990913402	1.2357569784481
0	273	27.59274789185	30.461393922684
0	587	58.054141814534	38.606359092644
0	973	96.660500907178	47.248718643983
0	1433	143.909219551161	50.501384159673
0	1937	194.410603710834	14.917016481666
0	2097	209.3276201925	10.793046144293
0	2233	220.120666336793	15.357780878864
0	2429	235.478447215657	6.1257888001119
0	2481	241.604236015769	6.9451394422723
0	2559	248.549375458041	22.640494331956
0	2731	271.189869789997	24.098761112935
0	3013	295.288630902932	71.382909386586
0	3617	366.671540289518	30.727117813864
0	3925	397.398658103382	34.919862958856
0	4273	432.318521062238	6.7023569539065
0	4335	439.020878016145	34.453454697782
0	4693	473.474332713927	10.432306109303
0	4815	483.90663882323	15.543959740068
0	4981	499.450598563298	14.748641107051
0	5175	514.199239670349	39.445318357268
0	5583	553.644558027617	1.5001777180508
0	5601	555.144735745668	8.6385142435746
0	5681	563.783249989243	15.052444574577
0	5855	578.83569456382	10.065871659141
0	5933	588.901566222961	8.6484705244632
0	6041	597.550036747424	55.467209135812
0	6673	653.017245883236	55.790842203823
0	7183	708.808088087059	33.694026274158
0	7569	742.502114361217	8.6786311693299
0	7653	751.180745530547	18.204339525769
0	7869	769.385085056316	0.47618237226499
0	7883	769.861267428581	18.980856679455
0	8101	788.842124108036	24.44061940337
0	8343	813.282743511406	31.85776703928
0	8697	845.140510550686	18.151831357247
0	8941	863.292341907933	7.5966333164151
0	9001	870.888975224348	30.273784514469
0	9301	901.162759738817	12.695767777163
0	9427	913.85852751598	28.032888075289
0	9691	941.891415591269	15.816295798248
0	9845	957.707711389517	13.986512663487
0	10011	971.694224053004	16.031357688993
0	10161	987.725581741997	8.3131430689522
0	10245	996.038724810949	6.6048139901433
0	10309	1002.643538801092	11.156803465539
0	10433	1013.800342266631	4.4481267157177
0	10471	1018.248468982349	2.4431614433576
0	10493	1020.691630425707	11.5695603681
0	10581	1032.261190793807	4.3380719413232
0	10641	1036.59926273513	21.763218155689
0	10845	1058.362480890819	29.020256360908
0	11145	1087.382737251727	0.6369950600263
0	11153	1088.019732311753	70.99082621729
0	11801	1159.010558529043	1.772305881256
0	11823	1160.782864410299	0.38466365841229
0	11841	1161.167528068711	12.567477416444
0	11957	1173.735005485155	16.951756501613
0	12107	1190.686761986768	9.0547175771403
0	12205	1199.741479563908	10.900359248907
0	12289	1210.641838812815	10.067269855874
0	12373	1220.709108668689	10.89907108139
0	12473	1231.608179750079	8.6627386363741
0	12549	1240.270918386453	21.845757498775
0	12789	1262.116675885228	76.565801608899
0	13517	1338.682477494127	8.4781769442216
0	13625	1347.160654438349	18.863281495528
0	13797	1366.023935933877	22.846622847532
0	14049	1388.870558781409	48.533779023342
0	14513	1437.404337804751	28.568486885393
0	14801	1465.972824690144	21.700438386659
0	15089	1487.673263076803	42.669697583149
0	15501	1530.342960659952	25.334588988602
0	15741	1555.677549648554	15.407852137771
0	15909	1571.085401786325	17.823761016391
0	16077	1588.909162802716	0.52574948923014
0	16085	1589.434912291946	10.83441977308
0	16183	1600.269332065026	13.510266196118
0	16301	1613.779598261144	8.8759081928704
0	16417	1622.655506454014	17.31960602204
0	16585	1639.975112476054	28.804767564566
0	16833	1668.77988004062	8.140980905758
0	16887	1676.920860946378	3.9516456551251
0	16953	1680.872506601503	23.332114044141
0	17197	1704.204620645644	35.773720780868
0	17593	1739.978341426512	49.105359004837
0	18061	1789.083700431349	13.271115185002
0	18191	1802.354815616351	8.6256741546363
0	18253	1810.980489770987	4.2231699569615
0	18289	1815.203659727948	110.84295371163
0	19341	1926.04661343958	6.4313196210266
0	19405	1932.477933060607	11.431755224325
0	19511	1943.909688284932	15.064791470761
0	19711	1958.974479755693	7.1207222959158
0	19757	1966.095202051609	4.829402814708
0	19821	1970.924604866317	12.740107234855
0	19957	1983.664712101172	13.613037196343
0	20085	1997.277749297515	4.0282270873053
0	20121	2001.30597638482	4.0031957746765
0	20161	2005.309172159496	3.0615294426561
0	20209	2008.370701602152	2.1749398338405
0	20233	2010.545641435992	18.768095862694
0	20461	2029.313737298686	1.4722813642031
0	20473	2030.786018662889	3.5550937382933
0	20521	2034.341112401182	53.478446299897
0	21137	2087.819558701079	17.225923366179
0	21305	2105.045482067258	17.450383057818
0	21493	2122.495865125076	11.830694814818
0	21619	2134.326559939894	0.4282258772704
0	21629	2134.754785817164	9.617322618501
0	21725	2144.372108435665	25.764502967301
0	21997	2170.136611402966	8.2932910816379
0	22081	2178.429902484604	21.267746202048
0	22269	2199.697648686652	30.490639328039
0	22571	2230.188288014691	28.908235177472
0	22841	2259.096523192163	2.7750407878378
0	22867	2261.871563980001	37.757107413786
0	23229	2299.628671393787	0.75102053117948
0	23239	2300.379691924966	12.862553624202
0	23381	2313.242245549168	1.0762842080287
0	23395	2314.318529757197	21.153332300119
0	23645	2335.471862057316	3.3935320585605
0	23689	2338.865394115876	40.009230365295
0	24103	2378.874624481171	8.800056396751
0	24203	2387.674680877922	6.5234573935807
0	24279	2394.198138271503	45.631971821487
0	24713	2439.83011009299	17.17307253328
0	24897	2457.00318262627	0.30370255084289
0	24913	2457.306885177113	5.3732432342845
0	24961	2462.680128411398	11.36839499
0	25049	2474.048523401398	0.4657447004282
0	25053	2474.514268101826	6.9904835442595
0	25109	2481.504751646085	43.709276630513
0	25481	2525.214028276598	75.864263550462
0	26113	2601.07829182706	15.863715067815
0	26257	2616.942006894875	1.9461170773208
0	26273	2618.888123972196	46.177255083331
0	26697	2665.065379055527	4.0363450111871
0	26729	2669.101724066714	2.6644215346243
0	26773	2671.766145601338	12.832040626784
0	26869	2684.598186228122	21.881166492935
0	27033	2706.479352721057	6.975197685398
0	27097	2713.454550406455	24.515569578138
0	27319	2737.970119984593	16.843011515848
0	27469	2754.813131500441	15.698800846383
0	27613	2770.511932346824	5.9903414380646
0	27685	2776.502273784889	28.86012893931
0	28013	2805.362402724199	10.36830905452
0	28089	2815.730711778719	21.708748136128
0	28341	2837.439459914847	2.0066629694987
0	28371	2839.446122884346	42.222681995262
0	28829	2881.668804879608	6.7101355318073
0	28885	2888.378940411415	8.1197130973174
0	28995	2896.498653508732	29.446487408881
0	29269	2925.945140917613	34.014523982012
0	29559	2959.959664899625	22.190929615628
0	29769	2982.150594515253	17.961108034252
0	29953	3000.111702549505	24.813072624492
0	30185	3024.924775173997	34.407364956676
0	30525	3059.332140130673	12.414276191405
0	30657	3071.746416322078	11.980160092043
0	30771	3083.726576414121	55.592992967587
0	31313	3139.319569381708	6.478479101024
0	31405	3145.798048482732	17.954212238893
0	31581	3163.752260721625	19.163260266041
0	31823	3182.915520987666	2.1785212913073
0	31849	3185.094042278973	10.188261292144
0	31949	3195.282303571117	10.470889033463
0	32045	3205.75319260458	1.1624245126046
0	32069	3206.915617117185	33.004135946167
0	32417	3239.919753063352	16.216955952464
0	32545	3256.136709015816	28.878913477416
0	32833	3285.015622493232	33.533958255349
0	33181	3318.549580748581	0.72614649419761
0	33185	3319.275727242779	43.365551862913
0	33569	3362.641279105692	3.9107857969803
0	33603	3366.552064902672	31.609074091579
0	33877	3398.161138994251	5.5218555895057
0	33929	3403.682994583757	8.5962974215103
0	33981	3412.279292005267	33.279303311268
0	34345	3445.558595316535	3.3570102686226
0	34381	3448.915605585158	82.062591426353
0	35135	3530.978197011511	8.1869587622866
0	35205	3539.165155773798	17.983004486038
0	35413	3557.148160259836	6.6209200868603
0	35463	3563.769080346696	18.269355165893
0	35633	3582.038435512589	1.9895763734301
0	35665	3584.028011886019	1.7329465289542
0	35689	3585.760958414973	1.7195613237912
0	35701	3587.480519738764	6.9543021404713
0	35765	3594.434821879235	7.6000576922529
0	35849	3602.034879571488	65.913345805351
0	36509	3667.948225376839	8.2799934857682
0	36589	3676.228218862607	9.3057552470083
0	36697	3685.533974109615	22.684094053604
0	36897	3708.218068163219	62.282636660375
0	37449	3770.500704823594	14.425331701568
0	37593	3784.926036525162	14.4567324022
0	37725	3799.382768927362	42.111970264887
0	38113	3841.494739192249	50.402176782408
0	38635	3891.896915974657	38.931856997401
0	39027	3930.828772972058	8.6016008469402
0	39113	3939.430373818998	40.448783765762
0	39485	3979.87915758476	20.251269849953
0	39707	4000.130427434713	40.843054448413
0	40081	4040.973481883126	15.8493293213
0	40227	4056.822811204426	7.531409324172
0	40309	4064.354220528598	10.238315235722
0	40437	4074.59253576432	6.9022468905365
0	40529	4081.494782654857	5.980592833606
0	40581	4087.475375488463	19.353771569892
0	40763	4106.829147058355	40.749821961604
0	41217	4147.578969019959	64.712009106739
0	41801	4212.290978126698	19.715826391226
0	41985	4232.006804517924	8.287028337496
0	42065	4240.29383285542	12.551227259441
0	42173	4252.845060114861	34.678310449008
0	42457	4287.523370563869	2.8020959409566
0	42495	4290.325466504826	6.1117491715018
0	42535	4296.437215676328	10.786041334389
0	42673	4307.223257010717	14.79114373946
0	42805	4322.014400750177	15.614965917073
0	42917	4337.62936666725	10.749949285661
0	43027	4348.379315952911	18.05467857975
0	43177	4366.433994532661	10.422208487342
0	43249	4376.856203020003	32.14035951933
0	43505	4408.996562539333	2.0546937122607
0	43525	4411.051256251594	20.955239220898
0	43741	4432.006495472492	0.95033871317829
0	43753	4432.95683418567	21.805885040518
0	43955	4454.762719226188	17.135636476364
0	44121	4471.898355702552	17.379074205937
0	44269	4489.277429908489	12.243546640738
0	44425	4501.520976549227	57.045486852901
0	44953	4558.566463402128	22.642264885949
0	45141	4581.208728288077	15.697651883484
0	45335	4596.906380171561	66.066214552147
0	46085	4662.972594723708	1.631641703751
0	46101	4664.604236427459	0.37638363235112
0	46107	4664.98062005981	56.10798539625
0	46581	4721.08860545606	13.045012408579
0	46705	4734.133617864639	3.238559269478
0	46751	4737.372177134117	22.734231271542
0	46953	4760.106408405659	16.947340084863
0	47133	4777.053748490522	15.601794507182
0	47305	4792.655542997704	28.189829370411
0	47565	4820.845372368115	2.3049452184771
0	47581	4823.150317586592	89.074435666428
0	48363	4912.22475325302	10.635311930815
0	48483	4922.860065183835	28.361542596751
0	48761	4951.221607780586	46.182427996298
0	49181	4997.404035776884	18.902718649624
0	49309	5016.306754426508	105.17571561078
0	50449	5121.482470037286	18.022618905097
0	50617	5139.505088942383	36.88967427866
0	51017	5176.394763221043	53.226625778985
0	51533	5229.621389000028	41.526400419399
0	51955	5271.147789419427	6.0879667063565
0	52017	5277.235756125784	10.982004269081
0	52109	5288.217760394865	23.937639377775
0	52341	5312.15539977264	3.9498146861158
0	52365	5316.105214458756	49.249044199079
0	52865	5365.354258657835	6.9513328095575
0	52921	5372.305591467392	6.1854483709463
0	52993	5378.491039838338	12.322134755441
0	53097	5390.813174593779	29.464053340192
0	53481	5420.277227933971	15.711663860258
0	53621	5435.988891794229	41.958903931232
0	54081	5477.947795725461	72.946556802667
0	54831	5550.894352528128	18.764778047353
0	55027	5569.659130575481	25.485231295785
0	55305	5595.144361871266	21.861980186715
0	55521	5617.006342057981	13.977980495097
0	55681	5630.984322553078	6.8615648616546
0	55745	5637.845887414733	3.5897001847276
0	55769	5641.435587599461	23.83594043708
0	56033	5665.271528036541	4.0988616164773
0	56101	5669.370389653018	25.895545443761
0	56403	5695.265935096779	33.83692552907
0	56711	5729.102860625849	16.508739858904
0	56879	5745.611600484753	21.120422813178
0	57101	5766.732023297931	0.36815617152467
0	57109	5767.100179469456	0.84575308706377
0	57121	5767.94593255652	36.491615343963
0	57435	5804.437547900483	0.55152595673077
0	57449	5804.989073857214	32.638723540828
0	57813	5837.627797398042	0.4089848530754
0	57827	5838.036782251117	2.4080429430146
0	57861	5840.444825194132	64.00842286409
0	58469	5904.453248058222	1.8620652571102
0	58481	5906.315313315332	4.705898913846
0	58509	5911.021212229178	7.0243298872123
0	58561	5918.04554211639	22.546741781322
0	58825	5940.592283897712	9.8266361462556
0	58913	5950.418920043968	6.1042310405956
0	58969	5956.523151084564	23.090012991813
0	59153	5979.613164076377	27.317528962178
0	59417	6006.930693038555	24.278083148065
0	59657	6031.20877618662	24.199409164855
0	59863	6055.408185351475	26.65560694367
0	60117	6082.063792295145	9.1020996504374
0	60193	6091.165891945582	4.4997522869904
0	60245	6095.665644232572	14.787816709045
0	60369	6110.453460941617	14.526224474348
0	60477	6124.979685415965	20.078655811273
0	60689	6145.058341227238	60.732947725469
0	61335	6205.791288952707	22.163496298617
0	61523	6227.954785251324	25.379552952658
0	61773	6253.334338203982	13.396846251016
0	61903	6266.731184454998	27.81327079453
0	62169	6294.544455249528	7.7040751001346
0	62241	6302.248530349663	8.4232098641217
0	62333	6310.671740213785	2.602671471574
0	62369	6313.274411685359	13.174646180008
0	62493	6326.449057865367	16.3711480394
0	62617	6342.820205904767	19.487972150714
0	62817	6362.308178055481	14.30090172176
0	62981	6376.609079777241	17.592053022037
0	63157	6394.201132799278	31.438578969635
0	63489	6425.639711768913	3.8424518584834
0	63525	6429.482163627396	0.44800154923152
0	63531	6429.930165176628	7.3966787617504
0	63625	6437.326843938378	10.596372996004
0	63705	6447.923216934382	41.609206551818
0	64073	6489.5324234862	37.218783002113
0	64481	6526.751206488313	36.226378056147
0	64809	6562.97758454446	4.0961950953711
0	64877	6567.073779639831	8.5459707714747
0	64961	6575.619750411306	6.8485758751197
0	65037	6582.468326286426	54.937798482057
0	65627	6637.406124768483	6.641657092475
0	65685	6644.047781860958	13.843390601941
0	65853	6657.891172462899	19.099263328213
0	66093	6676.990435791112	21.635001060219
0	66301	6698.625436851331	2.0145586317917
0	66329	6700.639995483123	7.1743869588687
0	66413	6707.814382441992	25.237031822857
0	66653	6733.051414264849	4.6748313109535
0	66705	6737.726245575802	8.6434496926124
0	66793	6746.369695268414	30.554041379738
0	67049	6776.923736648152	17.123766344448
0	67199	6794.0475029926	28.659347170871
0	67421	6822.706850163471	11.714496083508
0	67525	6834.421346246979	15.886019387246
0	67689	6850.307365634225	32.753732985389
0	68097	6883.061098619614	0.21743796895345
0	68101	6883.278536588567	1.4649193998602
0	68113	6884.743455988427	7.0397007921045
0	68191	6891.783156780531	2.7143419535317
0	68241	6894.497498734063	8.5722004800185
0	68317	6903.069699214081	3.4092682111267
0	68351	6906.478967425208	1.038953242246
0	68373	6907.517920667454	45.685207227422
0	68853	6953.203127894876	30.230535080607
0	69161	6983.433662975483	0.051234964984868
0	69163	6983.484897940468	14.26981892347
0	69327	6997.754716863938	1.0291397408143
0	69341	6998.783856604752	5.3280711738483
0	69409	7004.1119277786	9.5184540487466
0	69495	7013.630381827347	10.294016294201
0	69609	7023.924398121548	22.16747370229
0	69801	7046.091871823838	65.282693739475
0	70435	7111.374565563313	0.66231004405889
0	70443	7112.036875607372	15.75915713771
0	70613	7127.796032745082	43.808346781717
0	71025	7171.604379526799	40.83732022153
0	71461	7212.44169974833	29.913502661252
0	71713	7242.355202409582	18.704794180095
0	71897	7261.059996589677	18.096081134886
0	72089	7279.156077724563	8.2193473267875
0	72161	7287.37542505135	2.205948806381
0	72207	7289.581373857731	0.15376859459075
0	72213	7289.735142452322	24.348843693724
0	72437	7314.083986146046	55.790554470373
0	73017	7369.874540616419	18.390031946684
0	73201	7388.264572563103	77.264263504022
0	73993	7465.528836067125	1.6290093458579
0	74005	7467.157845412983	11.566392567645
0	74125	7478.724237980628	9.3512775900296
0	74257	7488.075515570658	53.062049298338
0	74829	7541.137564868996	2.2436303708871
0	74855	7543.381195239883	17.025194789636
0	75059	7560.406390029519	4.1705035078793
0	75089	7564.576893537398	0.33062345866894
0	75101	7564.907516996067	4.2517419939664
0	75141	7569.159258990033	19.547311579154
0	75401	7588.706570569187	12.995914893913
0	75529	7601.7024854631	63.138007893157
0	76137	7664.840493356257	4.9783525564177
0	76199	7669.818845912675	3.671208280664
0	76225	7673.490054193339	10.976259317516
0	76293	7684.466313510855	33.739127261114
0	76609	7718.205440771969	5.2714953147529
0	76657	7723.476936086722	0.74504568103979
0	76669	7724.221981767762	30.398263823893
0	76943	7754.620245591655	28.597690937899
0	77273	7783.217936529554	0.81714519129267
0	77285	7784.035081720847	22.41763423943
0	77507	7806.452715960277	13.814422895124
0	77629	7820.267138855401	10.846797770466
0	77777	7831.113936625867	1.9848999030332
0	77801	7833.0988365289	2.282648746074
0	77819	7835.381485274974	19.133113147724
0	77977	7854.514598422698	18.094996872397
0	78145	7872.609595295095	20.564469265015
0	78381	7893.17406456011	1.3140808150051
0	78405	7894.488145375115	9.3461520808983
0	78505	7903.834297456013	61.252040399453
0	79077	7965.086337855466	9.4057952781021
0	79149	7974.492133133568	1.348565843792
0	79177	7975.84069897736	40.101491685929
0	79589	8015.942190663289	1.0588787126627
0	79601	8017.001069375952	69.627345499851
0	80259	8086.628414875803	21.997923618958
0	80465	8108.626338494761	19.018622459945
0	80645	8127.644960954706	6.4323061040904
0	80721	8134.077267058796	32.779693765538
0	81095	8166.856960824334	2.1806839371868
0	81137	8169.037644761521	11.247887475856
0	81261	8180.285532237377	38.686195628486
0	81549	8218.971727865863	43.301854669398
0	81961	8262.273582535261	6.0088421108987
0	82017	8268.28242464616	5.0116753761453
0	82073	8273.294100022305	22.25070269278
0	82373	8295.544802715085	1.3571797558661
0	82401	8296.901982470951	9.9288136258855
0	82471	8306.830796096837	27.306589987528
0	82779	8334.137386084365	17.420390069606
0	83065	8351.557776153971	9.8719626381138
0	83161	8361.429738792085	33.249723310959
0	83449	8394.679462103044	0.2462248474842
0	83453	8394.925686950528	3.5588521490827
0	83495	8398.484539099611	8.6549781739228
0	83573	8407.139517273534	60.72246881775
0	84301	8467.861986091284	9.0750367599795
0	84431	8476.937022851264	42.403341136892
0	84865	8519.340363988156	1.8676580924228
0	84881	8521.208022080579	71.092105336248
0	85549	8592.300127416827	5.3440473008719
0	85593	8597.644174717699	23.435268055079
0	85827	8621.079442772778	39.648273352453
0	86195	8660.727716125231	27.609021321663
0	86457	8688.336737446894	19.912976075608