version 3
run Uniform-7-20260105-17:15:03-28078
attr configname Uniform
attr datetime 20260105-17:15:03
attr datetimef 20260105-171503
attr experiment Uniform
attr inifile omnetpp.ini
attr iterationvars "$N=50, $p=0.5"
attr iterationvarsd N=50/p=0.5
attr iterationvarsf N=50,p=0.5-
attr measurement "$N=50, $p=0.5"
attr network progetto.DatabaseNetwork
attr processid 28078
attr repetition 2
attr replication #2
attr resultdir results
attr runnumber 7
attr seedset 2
itervar N 50
itervar p 0.5
config description "Uniform distribution - varia N e p"
config *.user[*].tableDistribution "\"uniform\""
config *.numUsers 50
config *.user[*].readProbability 0.5
config network progetto.DatabaseNetwork
config sim-time-limit 10000s
config cpu-time-limit 3600s
config repeat 5
config seed-set 2
config output-vector-file "results/Uniform-$N=50, $p=0.5-2.vec"
config output-scalar-file "results/Uniform-$N=50, $p=0.5-2.sca"
config result-dir results
config **.vector-recording true
config **.scalar-recording true
config *.numTables 20
config *.user[*].lambda 0.05
config *.user[*].serviceTime 0.1s

vector 0 DatabaseNetwork.user[0] AccessInterval ETV
vector 1 DatabaseNetwork.user[1] AccessInterval ETV
vector 2 DatabaseNetwork.user[2] AccessInterval ETV
vector 3 DatabaseNetwork.user[3] AccessInterval ETV
vector 4 DatabaseNetwork.user[4] AccessInterval ETV
vector 5 DatabaseNetwork.user[5] AccessInterval ETV
vector 6 DatabaseNetwork.user[6] AccessInterval ETV
vector 7 DatabaseNetwork.user[7] AccessInterval ETV
vector 8 DatabaseNetwork.user[8] AccessInterval ETV
vector 9 DatabaseNetwork.user[9] AccessInterval ETV
vector 10 DatabaseNetwork.user[10] AccessInterval ETV
vector 11 DatabaseNetwork.user[11] AccessInterval ETV
vector 12 DatabaseNetwork.user[12] AccessInterval ETV
vector 13 DatabaseNetwork.user[13] AccessInterval ETV
vector 14 DatabaseNetwork.user[14] AccessInterval ETV
vector 15 DatabaseNetwork.user[15] AccessInterval ETV
vector 16 DatabaseNetwork.user[16] AccessInterval ETV
vector 17 DatabaseNetwork.user[17] AccessInterval ETV
vector 18 DatabaseNetwork.user[18] AccessInterval ETV
vector 19 DatabaseNetwork.user[19] AccessInterval ETV
vector 20 DatabaseNetwork.user[20] AccessInterval ETV
vector 21 DatabaseNetwork.user[21] AccessInterval ETV
vector 22 DatabaseNetwork.user[22] AccessInterval ETV
vector 23 DatabaseNetwork.user[23] AccessInterval ETV
vector 24 DatabaseNetwork.user[24] AccessInterval ETV
vector 25 DatabaseNetwork.user[25] AccessInterval ETV
vector 26 DatabaseNetwork.user[26] AccessInterval ETV
vector 27 DatabaseNetwork.user[27] AccessInterval ETV
vector 28 DatabaseNetwork.user[28] AccessInterval ETV
vector 29 DatabaseNetwork.user[29] AccessInterval ETV
vector 30 DatabaseNetwork.user[30] AccessInterval ETV
vector 31 DatabaseNetwork.user[31] AccessInterval ETV
vector 32 DatabaseNetwork.user[32] AccessInterval ETV
vector 33 DatabaseNetwork.user[33] AccessInterval ETV
vector 34 DatabaseNetwork.user[34] AccessInterval ETV
vector 35 DatabaseNetwork.user[35] AccessInterval ETV
vector 36 DatabaseNetwork.user[36] AccessInterval ETV
vector 37 DatabaseNetwork.user[37] AccessInterval ETV
vector 38 DatabaseNetwork.user[38] AccessInterval ETV
vector 39 DatabaseNetwork.user[39] AccessInterval ETV
vector 40 DatabaseNetwork.user[40] AccessInterval ETV
vector 41 DatabaseNetwork.user[41] AccessInterval ETV
vector 42 DatabaseNetwork.user[42] AccessInterval ETV
vector 43 DatabaseNetwork.user[43] AccessInterval ETV
vector 44 DatabaseNetwork.user[44] AccessInterval ETV
vector 45 DatabaseNetwork.user[45] AccessInterval ETV
vector 46 DatabaseNetwork.user[46] AccessInterval ETV
vector 47 DatabaseNetwork.user[47] AccessInterval ETV
vector 48 DatabaseNetwork.user[48] AccessInterval ETV
vector 49 DatabaseNetwork.user[49] AccessInterval ETV
vector 50 DatabaseNetwork.user[2] WriteAccesses ETV
vector 51 DatabaseNetwork.user[2] WaitTime ETV
vector 52 DatabaseNetwork.user[42] ReadAccesses ETV
vector 53 DatabaseNetwork.user[42] WaitTime ETV
vector 54 DatabaseNetwork.user[38] WriteAccesses ETV
vector 55 DatabaseNetwork.user[38] WaitTime ETV
vector 56 DatabaseNetwork.user[46] ReadAccesses ETV
vector 57 DatabaseNetwork.user[46] WaitTime ETV
vector 58 DatabaseNetwork.user[45] WriteAccesses ETV
vector 59 DatabaseNetwork.user[15] WriteAccesses ETV
vector 60 DatabaseNetwork.user[45] WaitTime ETV
vector 61 DatabaseNetwork.user[15] WaitTime ETV
vector 62 DatabaseNetwork.user[48] WriteAccesses ETV
vector 63 DatabaseNetwork.user[48] WaitTime ETV
vector 64 DatabaseNetwork.user[24] ReadAccesses ETV
vector 65 DatabaseNetwork.user[24] WaitTime ETV
vector 66 DatabaseNetwork.user[11] WriteAccesses ETV
vector 67 DatabaseNetwork.user[11] WaitTime ETV
vector 68 DatabaseNetwork.user[37] ReadAccesses ETV
vector 69 DatabaseNetwork.user[37] WaitTime ETV
vector 70 DatabaseNetwork.user[47] ReadAccesses ETV
vector 71 DatabaseNetwork.user[28] ReadAccesses ETV
vector 72 DatabaseNetwork.user[1] ReadAccesses ETV
vector 73 DatabaseNetwork.user[47] WaitTime ETV
vector 74 DatabaseNetwork.user[28] WaitTime ETV
vector 75 DatabaseNetwork.user[1] WaitTime ETV
vector 76 DatabaseNetwork.user[12] WriteAccesses ETV
vector 77 DatabaseNetwork.user[12] WaitTime ETV
vector 78 DatabaseNetwork.user[31] ReadAccesses ETV
vector 79 DatabaseNetwork.user[31] WaitTime ETV
vector 80 DatabaseNetwork.user[24] WriteAccesses ETV
vector 81 DatabaseNetwork.user[18] ReadAccesses ETV
vector 82 DatabaseNetwork.user[18] WaitTime ETV
vector 83 DatabaseNetwork.user[43] WriteAccesses ETV
vector 84 DatabaseNetwork.user[43] WaitTime ETV
vector 85 DatabaseNetwork.user[41] WriteAccesses ETV
vector 86 DatabaseNetwork.user[16] ReadAccesses ETV
vector 87 DatabaseNetwork.user[41] WaitTime ETV
vector 88 DatabaseNetwork.user[16] WaitTime ETV
vector 89 DatabaseNetwork.user[9] ReadAccesses ETV
vector 90 DatabaseNetwork.user[9] WaitTime ETV
vector 91 DatabaseNetwork.user[10] WriteAccesses ETV
vector 92 DatabaseNetwork.user[10] WaitTime ETV
vector 93 DatabaseNetwork.user[35] WriteAccesses ETV
vector 94 DatabaseNetwork.user[35] WaitTime ETV
vector 95 DatabaseNetwork.user[8] ReadAccesses ETV
vector 96 DatabaseNetwork.user[8] WaitTime ETV
vector 97 DatabaseNetwork.user[12] ReadAccesses ETV
vector 98 DatabaseNetwork.user[44] WriteAccesses ETV
vector 99 DatabaseNetwork.user[44] WaitTime ETV
vector 100 DatabaseNetwork.user[6] WriteAccesses ETV
vector 101 DatabaseNetwork.user[0] ReadAccesses ETV
vector 102 DatabaseNetwork.user[6] WaitTime ETV
vector 103 DatabaseNetwork.user[0] WaitTime ETV
vector 104 DatabaseNetwork.user[47] WriteAccesses ETV
vector 105 DatabaseNetwork.user[7] ReadAccesses ETV
vector 106 DatabaseNetwork.user[17] WriteAccesses ETV
vector 107 DatabaseNetwork.user[7] WaitTime ETV
vector 108 DatabaseNetwork.user[17] WaitTime ETV
vector 109 DatabaseNetwork.user[34] ReadAccesses ETV
vector 110 DatabaseNetwork.user[49] WriteAccesses ETV
vector 111 DatabaseNetwork.user[34] WaitTime ETV
vector 112 DatabaseNetwork.user[49] WaitTime ETV
vector 113 DatabaseNetwork.user[25] WriteAccesses ETV
vector 114 DatabaseNetwork.user[25] WaitTime ETV
vector 115 DatabaseNetwork.user[40] WriteAccesses ETV
vector 116 DatabaseNetwork.user[40] WaitTime ETV
vector 117 DatabaseNetwork.user[26] ReadAccesses ETV
vector 118 DatabaseNetwork.user[26] WaitTime ETV
vector 119 DatabaseNetwork.user[22] WriteAccesses ETV
vector 120 DatabaseNetwork.user[22] WaitTime ETV
vector 121 DatabaseNetwork.user[28] WriteAccesses ETV
vector 122 DatabaseNetwork.user[33] ReadAccesses ETV
vector 123 DatabaseNetwork.user[33] WaitTime ETV
vector 124 DatabaseNetwork.user[4] WriteAccesses ETV
vector 125 DatabaseNetwork.user[4] WaitTime ETV
vector 126 DatabaseNetwork.user[35] ReadAccesses ETV
vector 127 DatabaseNetwork.user[15] ReadAccesses ETV
vector 128 DatabaseNetwork.user[27] WriteAccesses ETV
vector 129 DatabaseNetwork.user[27] WaitTime ETV
vector 130 DatabaseNetwork.user[34] WriteAccesses ETV
vector 131 DatabaseNetwork.user[14] WriteAccesses ETV
vector 132 DatabaseNetwork.user[20] ReadAccesses ETV
vector 133 DatabaseNetwork.user[14] WaitTime ETV
vector 134 DatabaseNetwork.user[20] WaitTime ETV
vector 135 DatabaseNetwork.user[19] WriteAccesses ETV
vector 136 DatabaseNetwork.user[19] WaitTime ETV
vector 137 DatabaseNetwork.user[2] ReadAccesses ETV
vector 138 DatabaseNetwork.user[0] WriteAccesses ETV
vector 139 DatabaseNetwork.user[6] ReadAccesses ETV
vector 140 DatabaseNetwork.user[9] WriteAccesses ETV
vector 141 DatabaseNetwork.user[23] WriteAccesses ETV
vector 142 DatabaseNetwork.user[23] WaitTime ETV
vector 143 DatabaseNetwork.user[45] ReadAccesses ETV
vector 144 DatabaseNetwork.user[13] ReadAccesses ETV
vector 145 DatabaseNetwork.user[13] WaitTime ETV
vector 146 DatabaseNetwork.user[29] WriteAccesses ETV
vector 147 DatabaseNetwork.user[29] WaitTime ETV
vector 148 DatabaseNetwork.user[10] ReadAccesses ETV
vector 149 DatabaseNetwork.user[23] ReadAccesses ETV
vector 150 DatabaseNetwork.user[30] ReadAccesses ETV
vector 151 DatabaseNetwork.user[30] WaitTime ETV
vector 152 DatabaseNetwork.user[21] ReadAccesses ETV
vector 153 DatabaseNetwork.user[21] WaitTime ETV
vector 154 DatabaseNetwork.user[49] ReadAccesses ETV
vector 155 DatabaseNetwork.user[42] WriteAccesses ETV
vector 156 DatabaseNetwork.user[20] WriteAccesses ETV
vector 157 DatabaseNetwork.user[25] ReadAccesses ETV
vector 158 DatabaseNetwork.user[36] WriteAccesses ETV
vector 159 DatabaseNetwork.user[36] WaitTime ETV
vector 160 DatabaseNetwork.user[32] ReadAccesses ETV
vector 161 DatabaseNetwork.user[32] WaitTime ETV
vector 162 DatabaseNetwork.user[48] ReadAccesses ETV
vector 163 DatabaseNetwork.user[27] ReadAccesses ETV
vector 164 DatabaseNetwork.user[40] ReadAccesses ETV
vector 165 DatabaseNetwork.user[13] WriteAccesses ETV
vector 166 DatabaseNetwork.user[43] ReadAccesses ETV
vector 167 DatabaseNetwork.user[8] WriteAccesses ETV
vector 168 DatabaseNetwork.user[32] WriteAccesses ETV
vector 169 DatabaseNetwork.user[22] ReadAccesses ETV
vector 170 DatabaseNetwork.user[17] ReadAccesses ETV
vector 171 DatabaseNetwork.user[14] ReadAccesses ETV
vector 172 DatabaseNetwork.user[18] WriteAccesses ETV
vector 173 DatabaseNetwork.user[44] ReadAccesses ETV
vector 174 DatabaseNetwork.user[38] ReadAccesses ETV
vector 175 DatabaseNetwork.user[3] ReadAccesses ETV
vector 176 DatabaseNetwork.user[3] WaitTime ETV
vector 177 DatabaseNetwork.user[4] ReadAccesses ETV
vector 178 DatabaseNetwork.user[30] WriteAccesses ETV
vector 179 DatabaseNetwork.user[1] WriteAccesses ETV
vector 180 DatabaseNetwork.user[5] ReadAccesses ETV
vector 181 DatabaseNetwork.user[5] WaitTime ETV
vector 182 DatabaseNetwork.user[19] ReadAccesses ETV
vector 183 DatabaseNetwork.user[39] WriteAccesses ETV
vector 184 DatabaseNetwork.user[7] WriteAccesses ETV
vector 185 DatabaseNetwork.user[39] WaitTime ETV
vector 186 DatabaseNetwork.user[11] ReadAccesses ETV
vector 187 DatabaseNetwork.user[5] WriteAccesses ETV
vector 188 DatabaseNetwork.user[16] WriteAccesses ETV
vector 189 DatabaseNetwork.user[36] ReadAccesses ETV
vector 190 DatabaseNetwork.user[39] ReadAccesses ETV
vector 191 DatabaseNetwork.user[21] WriteAccesses ETV
vector 192 DatabaseNetwork.user[37] WriteAccesses ETV
vector 193 DatabaseNetwork.user[26] WriteAccesses ETV
vector 194 DatabaseNetwork.user[29] ReadAccesses ETV
vector 195 DatabaseNetwork.user[3] WriteAccesses ETV
vector 196 DatabaseNetwork.user[31] WriteAccesses ETV
vector 197 DatabaseNetwork.user[46] WriteAccesses ETV
vector 198 DatabaseNetwork.user[41] ReadAccesses ETV
vector 199 DatabaseNetwork.user[33] WriteAccesses ETV
0	0	0	11.453839792544
0	131	11.453839792544	10.611944014282
0	237	22.065783806826	2.0027734573223
0	263	24.068557264148	25.48418783831
0	493	49.552745102458	5.0489400649916
0	539	54.60168516745	14.618020697894
0	699	69.219705865344	29.774287713358
0	1021	98.993993578702	35.39555724023
0	1411	134.389550818932	14.245788651638
0	1585	148.63533947057	31.310685205334
0	1923	179.946024675904	42.72630193263
0	2363	222.672326608534	2.62718587884
0	2389	225.299512487374	52.383004276472
0	2817	277.682516763846	13.967210926921
0	2969	291.649727690767	18.616159983397
0	3169	310.265887674164	28.959156059761
0	3479	339.225043733925	21.042284787281
0	3725	360.267328521206	48.207888237893
0	4301	408.475216759099	0.64708740386419
0	4309	409.122304162963	22.1830561412
0	4533	431.305360304163	3.1437726213433
0	4581	434.449132925506	20.743995279445
0	4775	455.193128204951	6.9280056592322
0	4833	462.121133864183	10.434122350917
0	4953	472.5552562151	23.431087281615
0	5161	495.986343496715	10.768849864199
0	5253	506.755193360914	7.9043372797387
0	5327	514.659530640653	3.9476190231751
0	5365	518.607149663828	2.2462606740895
0	5379	520.853410337917	6.3612746633104
0	5465	527.214685001227	31.595351900523
0	5747	558.81003690175	19.281466059403
0	5985	578.091502961153	40.728844489523
0	6401	618.820347450676	0.4016448083059
0	6405	619.221992258982	23.646605896623
0	6637	642.868598155605	47.564183269303
0	7069	690.432781424908	20.204585757028
0	7213	710.637367181936	82.438336538767
0	7955	793.075703720703	56.04921618813
0	8533	849.124919908833	9.0248977601111
0	8625	858.149817668944	47.144443797774
0	9059	905.294261466718	57.262114187797
0	9613	962.556375654515	59.958961953326
0	10233	1022.515337607841	23.221510936671
0	10477	1045.736848544512	0.45872493558988
0	10495	1046.195573480102	34.647944400047
0	10873	1080.843517880149	0.61362542942525
0	10883	1081.457143309574	16.704678011726
0	11071	1098.1618213213	24.890954292184
0	11325	1123.052775613484	3.8809660381978
0	11369	1126.933741651682	27.295044399539
0	11661	1154.228786051221	56.954556192089
0	12231	1211.18334224331	7.0936006642567
0	12317	1218.276942907567	27.738838810528
0	12613	1246.015781718095	20.640153310456
0	12829	1266.655935028551	11.376501560364
0	12937	1278.032436588915	11.809350505416
0	13061	1289.841787094331	49.932691779953
0	13593	1339.774478874284	3.1812726298684
0	13633	1342.955751504152	14.414318817428
0	13777	1357.37007032158	1.2883846507291
0	13797	1358.658454972309	5.5261712111692
0	13837	1364.184626183478	3.6751241948743
0	13885	1367.859750378352	2.2318263658659
0	13915	1370.091576744218	18.851119008053
0	14129	1388.942695752271	2.6703612831369
0	14157	1391.613057035408	28.100244819279
0	14363	1419.713301854687	17.16575866477
0	14597	1436.879060519457	2.3815912514209
0	14613	1439.260651770878	25.725729679513
0	14837	1464.986381450391	19.9914549092
0	15017	1484.977836359591	24.745767111702
0	15245	1509.723603471293	0.90863751548521
0	15261	1510.632240986778	54.576903038252
0	15807	1565.20914402503	9.9812275694534
0	15881	1575.190371594483	1.0218318405158
0	15889	1576.212203434999	2.2346653314369
0	15925	1578.446868766436	32.914965571224
0	16305	1611.36183433766	33.215742814555
0	16585	1644.577577152215	157.20304923427
0	18183	1801.780626386481	1.662403771056
0	18197	1803.443030157537	30.365166793395
0	18471	1833.808196950932	5.2236021369712
0	18517	1839.031799087903	11.078307573012
0	18621	1850.110106660915	43.279471975338
0	18997	1893.389578636253	8.9881573922225
0	19085	1902.377736028476	27.525770374973
0	19449	1929.903506403449	57.121173341166
0	20009	1987.024679744615	5.4641602332762
0	20073	1992.488839977891	0.44080677471674
0	20081	1992.929646752608	8.2374025938055
0	20165	2001.167049346413	13.676578717651
0	20321	2014.843628064064	8.6312422046015
0	20389	2023.474870268666	15.970448340354
0	20569	2039.44531860902	5.7166322202427
0	20673	2045.161950829263	2.7485885750882
0	20701	2047.910539404351	2.9405507562894
0	20761	2050.85109016064	15.684845240682
0	20949	2066.535935401322	1.7645243541159
0	20969	2068.300459755438	15.187575292054
0	21167	2083.488035047492	11.323472942939
0	21319	2094.811507990431	16.869592179905
0	21469	2111.681100170336	29.506202011049
0	21801	2141.187302181385	29.77466090606
0	22081	2170.961963087445	0.58754966283509
0	22093	2171.54951275028	2.7650590495487
0	22113	2174.314571799829	22.216175757834
0	22329	2196.530747557663	45.938273339546
0	22841	2242.469020897209	33.557027901324
0	23205	2276.026048798533	18.483402262486
0	23401	2294.509451061019	19.801983216694
0	23577	2314.311434277713	23.522549451115
0	23825	2337.833983728828	12.398378207155
0	23981	2350.232361935983	2.1666823495667
0	24009	2352.39904428555	44.661160326814
0	24469	2397.060204612364	16.318980110607
0	24649	2413.379184722971	0.67771955414061
0	24653	2414.056904277112	9.7060997619352
0	24717	2423.763004039047	1.5215884114542
0	24743	2425.284592450501	21.10123405388
0	24969	2446.385826504381	15.923933764512
0	25131	2462.309760268893	32.72582234444
0	25485	2495.035582613333	20.36781703759
0	25689	2515.403399650923	12.886141100416
0	25797	2528.289540751339	8.3969972646573
0	25905	2536.686538015996	1.1569904605235
0	25917	2537.84352847652	22.293034508269
0	26093	2560.136562984789	4.4660412481155
0	26143	2564.602604232904	50.375537571146
0	26577	2614.97814180405	59.963991216206
0	27225	2674.942133020256	10.493254110769
0	27325	2685.435387131025	1.6345456503333
0	27341	2687.069932781358	12.353867284855
0	27481	2699.423800066213	19.201764286247
0	27667	2718.62556435246	18.043674977744
0	27857	2736.669239330204	1.9252743356745
0	27881	2738.594513665878	3.8886986970762
0	27925	2742.483212362954	2.1722346140544
0	27955	2744.655446977008	14.317849261209
0	28065	2758.973296238217	17.552984580834
0	28247	2776.526280819051	10.624249146006
0	28341	2787.150529965057	32.001042304496
0	28653	2819.151572269553	13.055523469243
0	28799	2832.207095738796	15.049777375296
0	28979	2847.256873114092	26.709177502244
0	29261	2873.966050616336	57.009775748709
0	29845	2930.975826365045	49.091970113511
0	30317	2980.067796478556	11.087969107354
0	30427	2991.15576558591	0.47042279492982
0	30437	2991.62618838084	40.697977525548
0	30783	3032.324165906388	21.6715803908
0	30953	3053.995746297188	14.949910970926
0	31109	3068.945657268114	11.986337973866
0	31287	3080.93199524198	2.4025620289405
0	31331	3083.334557270921	14.11637351164
0	31485	3097.450930782561	10.966738010671
0	31597	3108.417668793232	13.581749217946
0	31715	3121.999418011178	1.2812585518668
0	31747	3123.280676563045	4.982093753488
0	31781	3128.262770316533	27.028089401126
0	32005	3155.290859717659	10.090937570865
0	32097	3165.381797288524	15.225884999222
0	32261	3180.607682287746	10.860105999192
0	32365	3191.467788286938	9.3042992537931
0	32453	3200.772087540731	21.672884311907
0	32689	3222.444971852638	13.84950589145
0	32849	3236.294477744088	16.792123551003
0	33021	3253.086601295091	7.0155537147995
0	33077	3260.10215500989	9.1983243465385
0	33185	3269.300479356429	30.339889369183
0	33521	3299.640368725612	7.3181473111722
0	33621	3306.958516036784	17.022100291556
0	33793	3323.98061632834	24.83409144582
0	33987	3348.81470777416	6.3838795474629
0	34053	3355.198587321623	1.6307153813515
0	34067	3356.829302702974	0.87660502643903
0	34085	3357.705907729413	19.094177711357
0	34249	3376.80008544077	11.564275026821
0	34375	3388.364360467591	44.484799563442
0	34757	3432.849160031033	19.24564624646
0	34939	3452.094806277493	12.354373200839
0	35057	3464.449179478332	1.6002736790112
0	35069	3466.049453157343	1.4279294965601
0	35085	3467.477382653903	35.2992179176
0	35453	3502.776600571503	4.8854097802443
0	35497	3507.662010351747	6.7937749953525
0	35563	3514.455785347099	13.445119412142
0	35709	3527.900904759241	41.910269586595
0	36121	3569.811174345836	8.512569038453
0	36189	3578.323743384289	12.654339449841
0	36305	3590.97808283413	9.7213699293681
0	36455	3600.699452763498	6.1288938270841
0	36537	3606.828346590582	23.171560752048
0	36773	3629.99990734263	1.2998257126187
0	36793	3631.299733055249	21.703717563571
0	36989	3653.00345061882	2.2543085817707
0	37015	3655.257759200591	12.036025649282
0	37161	3667.293784849873	32.528313703385
0	37459	3699.822098553258	9.5055559948705
0	37565	3709.327654548129	21.537593249928
0	37773	3730.865247798057	16.93147139082
0	37961	3747.796719188877	27.748455130266
0	38237	3775.545174319143	1.8818165536708
0	38265	3777.426990872814	16.792319582727
0	38447	3794.219310455541	39.50931171541
0	38849	3833.728622170951	47.260197393934
0	39305	3880.988819564885	8.2296663807367
0	39381	3889.218485945622	12.561013620222
0	39485	3901.779499565844	14.06731829797
0	39573	3915.846817863814	2.6494086461764
0	39613	3918.49622650999	9.8033785533944
0	39689	3928.299605063384	4.3628654275846
0	39737	3932.662470490969	30.717305102957
0	40021	3963.379775593926	4.811711158993
0	40083	3968.191486752919	1.8672158583684
0	40109	3970.058702611287	12.63680258273
0	40229	3982.695505194017	3.855052577679
0	40261	3986.550557771696	12.402458278894
0	40445	3998.95301605059	28.656947459872
0	40737	4027.609963510462	17.04473603863
0	40869	4044.654699549092	15.104859805202
0	41025	4059.759559354294	16.885591091772
0	41177	4076.645150446066	50.331251286368
0	41707	4126.976401732434	19.140805241949
0	41889	4146.117206974383	17.109599347914
0	42059	4163.226806322297	7.0195422028331
0	42145	4170.24634852513	8.5015846610408
0	42245	4178.747933186171	2.7620952018514
0	42285	4181.510028388022	15.478834710118
0	42457	4196.98886309814	14.999272940136
0	42603	4211.988136038276	18.033444205041
0	42771	4230.021580243317	4.5647063241
0	42837	4234.586286567417	14.280672127736
0	42989	4248.866958695153	16.074119910686
0	43185	4264.941078605839	17.385670085289
0	43393	4282.326748691128	37.142742723284
0	43785	4319.469491414412	72.938529270133
0	44515	4392.408020684545	4.387661702248
0	44577	4396.795682386793	66.517186919308
0	45177	4463.312869306101	18.348423525564
0	45359	4481.661292831665	24.370955113223
0	45677	4506.032247944888	28.488849352903
0	45977	4534.521097297791	6.2881135984106
0	46025	4540.809210896202	0.84292493321202
0	46035	4541.652135829414	5.2629521267093
0	46089	4546.915087956123	11.935814130352
0	46237	4558.850902086475	0.056625783536242
0	46239	4558.907527870011	12.668459435561
0	46351	4571.575987305572	2.7440773944014
0	46393	4574.320064699973	49.176637497125
0	46887	4623.496702197098	60.332941235697
0	47487	4683.829643432795	1.3145463733219
0	47505	4685.144189806117	6.5359538111126
0	47581	4691.68014361723	138.54418315846
0	48981	4830.224326775688	14.983637184753
0	49117	4845.207963960441	3.8622811130123
0	49149	4849.070245073453	11.448182883897
0	49265	4860.51842795735	1.9228641154707
0	49293	4862.441292072821	42.859715750815
0	49707	4905.301007823636	7.5386763596922
0	49809	4912.839684183328	11.572637874243
0	49929	4924.412322057571	17.154565419418
0	50105	4941.566887476989	51.143141486944
0	50759	4992.710028963933	44.413620462154
0	51247	5037.123649426087	39.799269469596
0	51645	5076.922918895683	6.9972163236092
0	51729	5083.920135219292	7.299580192924
0	51813	5091.219715412216	13.287395018992
0	51933	5104.507110431208	37.893480338926
0	52307	5142.400590770134	23.517721419484
0	52535	5165.918312189618	12.411250612718
0	52633	5178.329562802336	113.2318254212
0	53699	5291.561388223537	2.4760914238256
0	53733	5294.037479647363	9.1911038849866
0	53817	5303.22858353235	89.090500875743
0	54673	5392.319084408093	7.5243850525303
0	54745	5399.843469460623	22.60871451657
0	54961	5422.452183977193	106.54077477063
0	56029	5528.992958747819	29.976292740859
0	56341	5558.969251488678	5.8901532647804
0	56403	5564.859404753458	9.4520342595169
0	56497	5574.311439012975	26.345228228074
0	56753	5600.656667241049	21.714778015111
0	56953	5622.37144525616	34.667065194076
0	57343	5657.038510450236	67.622906705379
0	57981	5724.661417155615	21.28704126404
0	58249	5745.948458419655	3.2922346247635
0	58313	5749.240693044419	48.57877276319
0	58725	5797.819465807609	10.486343139064
0	58805	5808.305808946673	7.1252652222531
0	58873	5815.431074168926	3.4527182028909
0	58913	5818.883792371817	2.2555690326608
0	58941	5821.139361404478	15.094886233472
0	59105	5836.23424763795	0.6076596381211
0	59111	5836.841907276071	18.175048639891
0	59257	5855.016955915962	4.5590161965487
0	59325	5859.575972112511	1.8497062954455
0	59345	5861.425678407957	1.3971600509425
0	59353	5862.8228384589	7.180475148428
0	59401	5870.003313607328	24.56098047651
0	59609	5894.564294083838	4.0470572297665
0	59685	5898.611351313604	10.002223618612
0	59831	5908.613574932216	6.3842263353304
0	59877	5914.997801267546	10.021558154948
0	59949	5925.019359422494	1.0848689650842
0	59969	5926.104228387578	0.78095827347583
0	59985	5926.885186661054	0.50628724479962
0	59993	5927.391473905854	3.305549679893
0	60053	5930.697023585747	4.2516265249839
0	60081	5934.948650110731	1.0734548915042
0	60093	5936.022105002235	14.043847916747
0	60221	5950.065952918982	6.0602466318672
0	60285	5956.126199550849	23.489725640146
0	60487	5979.615925190995	4.3854578635517
0	60541	5984.001383054547	21.25768005341
0	60741	6005.259063107957	1.3193709820192
0	60753	6006.578434089976	15.188532416341
0	60895	6021.766966506317	19.420708920007
0	61041	6041.187675426324	0.17759958099483
0	61045	6041.365275007319	56.411316984739
0	61683	6097.776591992058	7.679235807555
0	61773	6105.455827799613	11.9831889031
0	61877	6117.439016702713	33.334310612863
0	62243	6150.773327315576	8.6187260213161
0	62333	6159.392053336892	20.431435279297
0	62517	6179.823488616189	6.4460377133654
0	62581	6186.269526329554	7.3171529111303
0	62663	6193.586679240684	15.930304124037
0	62797	6209.516983364721	27.005023176798
0	63097	6236.522006541519	40.392071935945
0	63533	6276.914078477464	21.333225093857
0	63695	6298.247303571321	0.79531202110142
0	63709	6299.042615592422	15.189864527529
0	63879	6314.232480119951	0.15550306550476
0	63885	6314.387983185456	15.048340504505
0	64035	6329.436323689961	0.45071295754328
0	64045	6329.887036647504	28.01705989111
0	64273	6357.904096538614	31.634815219173
0	64545	6389.538911757787	30.048004021057
0	64917	6419.586915778844	27.425699999051
0	65193	6447.012615777895	0.58471460684706
0	65205	6447.597330384742	10.974239244601
0	65345	6458.571569629343	9.4602193981832
0	65439	6468.031789027526	29.025137567559
0	65687	6497.056926595085	46.067349709944
0	66117	6543.124276305029	11.724105287799
0	66255	6554.848381592828	10.528088226073
0	66391	6565.376469818901	30.404929870171
0	66707	6595.781399689072	6.3206875075781
0	66785	6602.10208719665	32.012006776959
0	67135	6634.114093973609	35.687486575423
0	67539	6669.801580549032	6.518222192757
0	67609	6676.319802741789	5.5619095734352
0	67665	6681.881712315224	4.5487261572995
0	67701	6686.430438472523	26.836905305871
0	67965	6713.267343778394	35.904267680032
0	68261	6749.171611458426	11.414192146602
0	68391	6760.585803605028	10.254544079135
0	68493	6770.840347684163	13.255668184205
0	68615	6784.096015868368	12.444937339186
0	68765	6796.540953207554	11.745798895684
0	68881	6808.286752103238	16.112420350064
0	69029	6824.399172453302	3.1580785484385
0	69061	6827.55725100174	34.388534362297
0	69401	6861.945785364037	19.91375287835
0	69579	6881.859538242387	14.733426061244
0	69701	6896.592964303631	0.74479229406654
0	69709	6897.337756597698	6.856601686674
0	69827	6904.194358284372	14.723994394254
0	69953	6918.918352678626	21.637673777498
0	70167	6940.556026456124	0.48672255229391
0	70177	6941.042749008418	6.6872477190817
0	70241	6947.7299967275	50.32987344075
0	70743	6998.05987016825	11.132016680916
0	70849	7009.191886849166	47.960638240885
0	71255	7057.152525090051	54.259626933223
0	71789	7111.412152023274	36.788625697018
0	72197	7148.200777720292	19.627621682074
0	72361	7167.828399402366	24.098266808344
0	72581	7191.92666621071	2.4264004027867
0	72609	7194.353066613497	73.625576886218
0	73329	7267.978643499715	21.557012767577
0	73511	7289.535656267292	3.8090460366876
0	73545	7293.34470230398	5.1526865883849
0	73621	7298.497388892365	6.7861226993519
0	73685	7305.283511591717	2.7408000105475
0	73721	7308.024311602265	14.213903157873
0	73901	7322.238214760138	26.674597666347
0	74131	7348.912812426485	0.95779689119249
0	74145	7349.870609317677	12.268639355505
0	74273	7362.139248673182	31.139197987539
0	74507	7393.278446660721	15.787132761467
0	74677	7409.065579422188	0.14924000543692
0	74681	7409.214819427625	9.1634257975986
0	74803	7418.378245225224	13.892267663578
0	74921	7432.270512888802	5.9752828438845
0	75027	7438.245795732687	8.9884263146191
0	75065	7447.234222047306	41.951502243403
0	75485	7489.185724290709	47.615871467313
0	75965	7536.801595758022	13.741380115458
0	76089	7550.54297587348	40.802406643867
0	76573	7591.345382517347	6.5398201574514
0	76633	7597.885202674798	5.263596175038
0	76669	7603.148798849836	33.592653390488
0	77005	7636.741452240324	0.90345636950283
0	77033	7637.644908609827	1.0091276561837
0	77047	7638.654036266011	34.829106134366
0	77351	7673.483142400377	8.2180254573352
0	77449	7681.701167857712	6.9076205382522
0	77541	7688.608788395964	0.53327947838049
0	77557	7689.142067874344	6.03725601674
0	77589	7695.179323891084	62.841005121579
0	78197	7758.020329012663	1.3500317524827
0	78225	7759.370360765146	5.2776388583121
0	78265	7764.647999623458	6.8192798843923
0	78329	7771.46727950785	0.25374077650179
0	78333	7771.721020284352	6.2620303017226
0	78385	7777.983050586075	9.6076548458723
0	78505	7787.590705431947	3.6991160392301
0	78521	7791.289821471177	8.8708583896861
0	78621	7800.160679860863	23.716541818457
0	78817	7823.87722167932	2.007459499575
0	78853	7825.884681178895	15.540645001732
0	79005	7841.425326180627	7.8259845557461
0	79089	7849.251310736373	9.3184950492816
0	79151	7858.569805785655	15.428202328927
0	79297	7873.998008114582	26.971699761761
0	79525	7900.969707876343	50.833880256219
0	80061	7951.803588132562	83.612511235362
0	80849	8035.416099367924	0.83770220484784
0	80861	8036.253801572772	10.843285208758
0	80977	8047.09708678153	6.6238811825586
0	81043	8053.720967964089	17.85101178103
0	81235	8071.571979745119	11.16717950812
0	81345	8082.739159253239	17.47729965462
0	81513	8100.216458907859	3.638259870471
0	81565	8103.85471877833	14.490929375201
0	81765	8118.345648153531	32.048047022582
0	82105	8150.393695176113	2.1228438406995
0	82145	8152.516539016813	9.3319106375289
0	82235	8161.848449654342	9.3063640339931
0	82331	8171.154813688335	3.1523613628282
0	82375	8174.307175051163	24.892828058105
0	82653	8199.200003109268	23.241097457096
0	82881	8222.441100566364	26.199527233618