file 9055290 1767629710                                         
version 3
run Uniform-87-20260105-17:15:10-28078
attr configname Uniform
attr datetime 20260105-17:15:10
attr datetimef 20260105-171510
attr experiment Uniform
attr inifile omnetpp.ini
attr iterationvars "$N=150, $p=0.7"
attr iterationvarsd N=150/p=0.7
attr iterationvarsf N=150,p=0.7-
attr measurement "$N=150, $p=0.7"
attr network progetto.DatabaseNetwork
attr processid 28078
attr repetition 2
attr replication #2
attr resultdir results
attr runnumber 87
attr seedset 2
itervar N 150
itervar p 0.7
config description "Uniform distribution - varia N e p"
config *.user[*].tableDistribution "\"uniform\""
config *.numUsers 150
config *.user[*].readProbability 0.7
config network progetto.DatabaseNetwork
config sim-time-limit 10000s
config cpu-time-limit 3600s
config repeat 5
config seed-set 2
config output-vector-file "results/Uniform-$N=150, $p=0.7-2.vec"
config output-scalar-file "results/Uniform-$N=150, $p=0.7-2.sca"
config result-dir results
config **.vector-recording true
config **.scalar-recording true
config *.numTables 20
config *.user[*].lambda 0.05
config *.user[*].serviceTime 0.1s

vector 0 DatabaseNetwork.user[0] AccessInterval ETV
vector 1 DatabaseNetwork.user[1] AccessInterval ETV
vector 2 DatabaseNetwork.user[2] AccessInterval ETV
vector 3 DatabaseNetwork.user[3] AccessInterval ETV
vector 4 DatabaseNetwork.user[4] AccessInterval ETV
vector 5 DatabaseNetwork.user[5] AccessInterval ETV
vector 6 DatabaseNetwork.user[6] AccessInterval ETV
vector 7 DatabaseNetwork.user[7] AccessInterval ETV
vector 8 DatabaseNetwork.user[8] AccessInterval ETV
vector 9 DatabaseNetwork.user[9] AccessInterval ETV
vector 10 DatabaseNetwork.user[10] AccessInterval ETV
vector 11 DatabaseNetwork.user[11] AccessInterval ETV
vector 12 DatabaseNetwork.user[12] AccessInterval ETV
vector 13 DatabaseNetwork.user[13] AccessInterval ETV
vector 14 DatabaseNetwork.user[14] AccessInterval ETV
vector 15 DatabaseNetwork.user[15] AccessInterval ETV
vector 16 DatabaseNetwork.user[16] AccessInterval ETV
vector 17 DatabaseNetwork.user[17] AccessInterval ETV
vector 18 DatabaseNetwork.user[18] AccessInterval ETV
vector 19 DatabaseNetwork.user[19] AccessInterval ETV
vector 20 DatabaseNetwork.user[20] AccessInterval ETV
vector 21 DatabaseNetwork.user[21] AccessInterval ETV
vector 22 DatabaseNetwork.user[22] AccessInterval ETV
vector 23 DatabaseNetwork.user[23] AccessInterval ETV
vector 24 DatabaseNetwork.user[24] AccessInterval ETV
vector 25 DatabaseNetwork.user[25] AccessInterval ETV
vector 26 DatabaseNetwork.user[26] AccessInterval ETV
vector 27 DatabaseNetwork.user[27] AccessInterval ETV
vector 28 DatabaseNetwork.user[28] AccessInterval ETV
vector 29 DatabaseNetwork.user[29] AccessInterval ETV
vector 30 DatabaseNetwork.user[30] AccessInterval ETV
vector 31 DatabaseNetwork.user[31] AccessInterval ETV
vector 32 DatabaseNetwork.user[32] AccessInterval ETV
vector 33 DatabaseNetwork.user[33] AccessInterval ETV
vector 34 DatabaseNetwork.user[34] AccessInterval ETV
vector 35 DatabaseNetwork.user[35] AccessInterval ETV
vector 36 DatabaseNetwork.user[36] AccessInterval ETV
vector 37 DatabaseNetwork.user[37] AccessInterval ETV
vector 38 DatabaseNetwork.user[38] AccessInterval ETV
vector 39 DatabaseNetwork.user[39] AccessInterval ETV
vector 40 DatabaseNetwork.user[40] AccessInterval ETV
vector 41 DatabaseNetwork.user[41] AccessInterval ETV
vector 42 DatabaseNetwork.user[42] AccessInterval ETV
vector 43 DatabaseNetwork.user[43] AccessInterval ETV
vector 44 DatabaseNetwork.user[44] AccessInterval ETV
vector 45 DatabaseNetwork.user[45] AccessInterval ETV
vector 46 DatabaseNetwork.user[46] AccessInterval ETV
vector 47 DatabaseNetwork.user[47] AccessInterval ETV
vector 48 DatabaseNetwork.user[48] AccessInterval ETV
vector 49 DatabaseNetwork.user[49] AccessInterval ETV
vector 50 DatabaseNetwork.user[50] AccessInterval ETV
vector 51 DatabaseNetwork.user[51] AccessInterval ETV
vector 52 DatabaseNetwork.user[52] AccessInterval ETV
vector 53 DatabaseNetwork.user[53] AccessInterval ETV
vector 54 DatabaseNetwork.user[54] AccessInterval ETV
vector 55 DatabaseNetwork.user[55] AccessInterval ETV
vector 56 DatabaseNetwork.user[56] AccessInterval ETV
vector 57 DatabaseNetwork.user[57] AccessInterval ETV
vector 58 DatabaseNetwork.user[58] AccessInterval ETV
vector 59 DatabaseNetwork.user[59] AccessInterval ETV
vector 60 DatabaseNetwork.user[60] AccessInterval ETV
vector 61 DatabaseNetwork.user[61] AccessInterval ETV
vector 62 DatabaseNetwork.user[62] AccessInterval ETV
vector 63 DatabaseNetwork.user[63] AccessInterval ETV
vector 64 DatabaseNetwork.user[64] AccessInterval ETV
vector 65 DatabaseNetwork.user[65] AccessInterval ETV
vector 66 DatabaseNetwork.user[66] AccessInterval ETV
vector 67 DatabaseNetwork.user[67] AccessInterval ETV
vector 68 DatabaseNetwork.user[68] AccessInterval ETV
vector 69 DatabaseNetwork.user[69] AccessInterval ETV
vector 70 DatabaseNetwork.user[70] AccessInterval ETV
vector 71 DatabaseNetwork.user[71] AccessInterval ETV
vector 72 DatabaseNetwork.user[72] AccessInterval ETV
vector 73 DatabaseNetwork.user[73] AccessInterval ETV
vector 74 DatabaseNetwork.user[74] AccessInterval ETV
vector 75 DatabaseNetwork.user[75] AccessInterval ETV
vector 76 DatabaseNetwork.user[76] AccessInterval ETV
vector 77 DatabaseNetwork.user[77] AccessInterval ETV
vector 78 DatabaseNetwork.user[78] AccessInterval ETV
vector 79 DatabaseNetwork.user[79] AccessInterval ETV
vector 80 DatabaseNetwork.user[80] AccessInterval ETV
vector 81 DatabaseNetwork.user[81] AccessInterval ETV
vector 82 DatabaseNetwork.user[82] AccessInterval ETV
vector 83 DatabaseNetwork.user[83] AccessInterval ETV
vector 84 DatabaseNetwork.user[84] AccessInterval ETV
vector 85 DatabaseNetwork.user[85] AccessInterval ETV
vector 86 DatabaseNetwork.user[86] AccessInterval ETV
vector 87 DatabaseNetwork.user[87] AccessInterval ETV
vector 88 DatabaseNetwork.user[88] AccessInterval ETV
vector 89 DatabaseNetwork.user[89] AccessInterval ETV
vector 90 DatabaseNetwork.user[90] AccessInterval ETV
vector 91 DatabaseNetwork.user[91] AccessInterval ETV
vector 92 DatabaseNetwork.user[92] AccessInterval ETV
vector 93 DatabaseNetwork.user[93] AccessInterval ETV
vector 94 DatabaseNetwork.user[94] AccessInterval ETV
vector 95 DatabaseNetwork.user[95] AccessInterval ETV
vector 96 DatabaseNetwork.user[96] AccessInterval ETV
vector 97 DatabaseNetwork.user[97] AccessInterval ETV
vector 98 DatabaseNetwork.user[98] AccessInterval ETV
vector 99 DatabaseNetwork.user[99] AccessInterval ETV
vector 100 DatabaseNetwork.user[100] AccessInterval ETV
vector 101 DatabaseNetwork.user[101] AccessInterval ETV
vector 102 DatabaseNetwork.user[102] AccessInterval ETV
vector 103 DatabaseNetwork.user[103] AccessInterval ETV
vector 104 DatabaseNetwork.user[104] AccessInterval ETV
vector 105 DatabaseNetwork.user[105] AccessInterval ETV
vector 106 DatabaseNetwork.user[106] AccessInterval ETV
vector 107 DatabaseNetwork.user[107] AccessInterval ETV
vector 108 DatabaseNetwork.user[108] AccessInterval ETV
vector 109 DatabaseNetwork.user[109] AccessInterval ETV
vector 110 DatabaseNetwork.user[110] AccessInterval ETV
vector 111 DatabaseNetwork.user[111] AccessInterval ETV
vector 112 DatabaseNetwork.user[112] AccessInterval ETV
vector 113 DatabaseNetwork.user[113] AccessInterval ETV
vector 114 DatabaseNetwork.user[114] AccessInterval ETV
vector 115 DatabaseNetwork.user[115] AccessInterval ETV
vector 116 DatabaseNetwork.user[116] AccessInterval ETV
vector 117 DatabaseNetwork.user[117] AccessInterval ETV
vector 118 DatabaseNetwork.user[118] AccessInterval ETV
vector 119 DatabaseNetwork.user[119] AccessInterval ETV
vector 120 DatabaseNetwork.user[120] AccessInterval ETV
vector 121 DatabaseNetwork.user[121] AccessInterval ETV
vector 122 DatabaseNetwork.user[122] AccessInterval ETV
vector 123 DatabaseNetwork.user[123] AccessInterval ETV
vector 124 DatabaseNetwork.user[124] AccessInterval ETV
vector 125 DatabaseNetwork.user[125] AccessInterval ETV
vector 126 DatabaseNetwork.user[126] AccessInterval ETV
vector 127 DatabaseNetwork.user[127] AccessInterval ETV
vector 128 DatabaseNetwork.user[128] AccessInterval ETV
vector 129 DatabaseNetwork.user[129] AccessInterval ETV
vector 130 DatabaseNetwork.user[130] AccessInterval ETV
vector 131 DatabaseNetwork.user[131] AccessInterval ETV
vector 132 DatabaseNetwork.user[132] AccessInterval ETV
vector 133 DatabaseNetwork.user[133] AccessInterval ETV
vector 134 DatabaseNetwork.user[134] AccessInterval ETV
vector 135 DatabaseNetwork.user[135] AccessInterval ETV
vector 136 DatabaseNetwork.user[136] AccessInterval ETV
vector 137 DatabaseNetwork.user[137] AccessInterval ETV
vector 138 DatabaseNetwork.user[138] AccessInterval ETV
vector 139 DatabaseNetwork.user[139] AccessInterval ETV
vector 140 DatabaseNetwork.user[140] AccessInterval ETV
vector 141 DatabaseNetwork.user[141] AccessInterval ETV
vector 142 DatabaseNetwork.user[142] AccessInterval ETV
vector 143 DatabaseNetwork.user[143] AccessInterval ETV
vector 144 DatabaseNetwork.user[144] AccessInterval ETV
vector 145 DatabaseNetwork.user[145] AccessInterval ETV
vector 146 DatabaseNetwork.user[146] AccessInterval ETV
vector 147 DatabaseNetwork.user[147] AccessInterval ETV
vector 148 DatabaseNetwork.user[148] AccessInterval ETV
vector 149 DatabaseNetwork.user[149] AccessInterval ETV
vector 150 DatabaseNetwork.user[2] ReadAccesses ETV
vector 151 DatabaseNetwork.user[110] ReadAccesses ETV
vector 152 DatabaseNetwork.user[2] WaitTime ETV
vector 153 DatabaseNetwork.user[110] WaitTime ETV
vector 154 DatabaseNetwork.user[134] ReadAccesses ETV
vector 155 DatabaseNetwork.user[134] WaitTime ETV
vector 156 DatabaseNetwork.user[42] ReadAccesses ETV
vector 157 DatabaseNetwork.user[114] WriteAccesses ETV
vector 158 DatabaseNetwork.user[42] WaitTime ETV
vector 159 DatabaseNetwork.user[114] WaitTime ETV
vector 160 DatabaseNetwork.user[38] ReadAccesses ETV
vector 161 DatabaseNetwork.user[102] ReadAccesses ETV
vector 162 DatabaseNetwork.user[38] WaitTime ETV
vector 163 DatabaseNetwork.user[102] WaitTime ETV
vector 164 DatabaseNetwork.user[46] ReadAccesses ETV
vector 165 DatabaseNetwork.user[46] WaitTime ETV
vector 166 DatabaseNetwork.user[54] ReadAccesses ETV
vector 167 DatabaseNetwork.user[54] WaitTime ETV
vector 168 DatabaseNetwork.user[45] WriteAccesses ETV
vector 169 DatabaseNetwork.user[75] ReadAccesses ETV
vector 170 DatabaseNetwork.user[15] WriteAccesses ETV
vector 171 DatabaseNetwork.user[45] WaitTime ETV
vector 172 DatabaseNetwork.user[75] WaitTime ETV
vector 173 DatabaseNetwork.user[15] WaitTime ETV
vector 174 DatabaseNetwork.user[48] WriteAccesses ETV
vector 175 DatabaseNetwork.user[48] WaitTime ETV
vector 176 DatabaseNetwork.user[24] WriteAccesses ETV
vector 177 DatabaseNetwork.user[24] WaitTime ETV
vector 178 DatabaseNetwork.user[77] ReadAccesses ETV
vector 179 DatabaseNetwork.user[77] WaitTime ETV
vector 180 DatabaseNetwork.user[11] ReadAccesses ETV
vector 181 DatabaseNetwork.user[11] WaitTime ETV
vector 182 DatabaseNetwork.user[76] ReadAccesses ETV
vector 183 DatabaseNetwork.user[76] WaitTime ETV
vector 184 DatabaseNetwork.user[59] ReadAccesses ETV
vector 185 DatabaseNetwork.user[126] ReadAccesses ETV
vector 186 DatabaseNetwork.user[59] WaitTime ETV
vector 187 DatabaseNetwork.user[126] WaitTime ETV
vector 188 DatabaseNetwork.user[37] ReadAccesses ETV
vector 189 DatabaseNetwork.user[37] WaitTime ETV
vector 190 DatabaseNetwork.user[47] ReadAccesses ETV
vector 191 DatabaseNetwork.user[28] WriteAccesses ETV
vector 192 DatabaseNetwork.user[1] WriteAccesses ETV
vector 193 DatabaseNetwork.user[47] WaitTime ETV
vector 194 DatabaseNetwork.user[28] WaitTime ETV
vector 195 DatabaseNetwork.user[1] WaitTime ETV
vector 196 DatabaseNetwork.user[62] WriteAccesses ETV
vector 197 DatabaseNetwork.user[12] ReadAccesses ETV
vector 198 DatabaseNetwork.user[62] WaitTime ETV
vector 199 DatabaseNetwork.user[12] WaitTime ETV
vector 200 DatabaseNetwork.user[83] ReadAccesses ETV
vector 201 DatabaseNetwork.user[56] ReadAccesses ETV
vector 202 DatabaseNetwork.user[109] WriteAccesses ETV
vector 203 DatabaseNetwork.user[83] WaitTime ETV
vector 204 DatabaseNetwork.user[53] ReadAccesses ETV
vector 205 DatabaseNetwork.user[56] WaitTime ETV
vector 206 DatabaseNetwork.user[109] WaitTime ETV
vector 207 DatabaseNetwork.user[53] WaitTime ETV
vector 208 DatabaseNetwork.user[52] ReadAccesses ETV
vector 209 DatabaseNetwork.user[52] WaitTime ETV
vector 210 DatabaseNetwork.user[112] ReadAccesses ETV
vector 211 DatabaseNetwork.user[112] WaitTime ETV
vector 212 DatabaseNetwork.user[31] ReadAccesses ETV
vector 213 DatabaseNetwork.user[89] ReadAccesses ETV
vector 214 DatabaseNetwork.user[144] ReadAccesses ETV
vector 215 DatabaseNetwork.user[31] WaitTime ETV
vector 216 DatabaseNetwork.user[89] WaitTime ETV
vector 217 DatabaseNetwork.user[144] WaitTime ETV
vector 218 DatabaseNetwork.user[18] WriteAccesses ETV
vector 219 DatabaseNetwork.user[18] WaitTime ETV
vector 220 DatabaseNetwork.user[97] ReadAccesses ETV
vector 221 DatabaseNetwork.user[48] ReadAccesses ETV
vector 222 DatabaseNetwork.user[97] WaitTime ETV
vector 223 DatabaseNetwork.user[43] ReadAccesses ETV
vector 224 DatabaseNetwork.user[43] WaitTime ETV
vector 225 DatabaseNetwork.user[128] ReadAccesses ETV
vector 226 DatabaseNetwork.user[128] WaitTime ETV
vector 227 DatabaseNetwork.user[41] ReadAccesses ETV
vector 228 DatabaseNetwork.user[16] ReadAccesses ETV
vector 229 DatabaseNetwork.user[41] WaitTime ETV
vector 230 DatabaseNetwork.user[16] WaitTime ETV
vector 231 DatabaseNetwork.user[87] ReadAccesses ETV
vector 232 DatabaseNetwork.user[87] WaitTime ETV
vector 233 DatabaseNetwork.user[9] ReadAccesses ETV
vector 234 DatabaseNetwork.user[131] ReadAccesses ETV
vector 235 DatabaseNetwork.user[142] ReadAccesses ETV
vector 236 DatabaseNetwork.user[9] WaitTime ETV
vector 237 DatabaseNetwork.user[131] WaitTime ETV
vector 238 DatabaseNetwork.user[142] WaitTime ETV
vector 239 DatabaseNetwork.user[10] ReadAccesses ETV
vector 240 DatabaseNetwork.user[10] WaitTime ETV
vector 241 DatabaseNetwork.user[86] ReadAccesses ETV
vector 242 DatabaseNetwork.user[86] WaitTime ETV
vector 243 DatabaseNetwork.user[58] ReadAccesses ETV
vector 244 DatabaseNetwork.user[58] WaitTime ETV
vector 245 DatabaseNetwork.user[93] WriteAccesses ETV
vector 246 DatabaseNetwork.user[132] ReadAccesses ETV
vector 247 DatabaseNetwork.user[93] WaitTime ETV
vector 248 DatabaseNetwork.user[132] WaitTime ETV
vector 249 DatabaseNetwork.user[104] WriteAccesses ETV
vector 250 DatabaseNetwork.user[109] ReadAccesses ETV
vector 251 DatabaseNetwork.user[61] WriteAccesses ETV
vector 252 DatabaseNetwork.user[104] WaitTime ETV
vector 253 DatabaseNetwork.user[61] WaitTime ETV
vector 254 DatabaseNetwork.user[46] WriteAccesses ETV
vector 255 DatabaseNetwork.user[146] WriteAccesses ETV
vector 256 DatabaseNetwork.user[70] ReadAccesses ETV
vector 257 DatabaseNetwork.user[146] WaitTime ETV
vector 258 DatabaseNetwork.user[70] WaitTime ETV
vector 259 DatabaseNetwork.user[147] ReadAccesses ETV
vector 260 DatabaseNetwork.user[147] WaitTime ETV
vector 261 DatabaseNetwork.user[108] ReadAccesses ETV
vector 262 DatabaseNetwork.user[35] ReadAccesses ETV
vector 263 DatabaseNetwork.user[108] WaitTime ETV
vector 264 DatabaseNetwork.user[35] WaitTime ETV
vector 265 DatabaseNetwork.user[8] WriteAccesses ETV
vector 266 DatabaseNetwork.user[8] WaitTime ETV
vector 267 DatabaseNetwork.user[129] WriteAccesses ETV
vector 268 DatabaseNetwork.user[90] ReadAccesses ETV
vector 269 DatabaseNetwork.user[44] ReadAccesses ETV
vector 270 DatabaseNetwork.user[129] ReadAccesses ETV
vector 271 DatabaseNetwork.user[129] WaitTime ETV
vector 272 DatabaseNetwork.user[90] WaitTime ETV
vector 273 DatabaseNetwork.user[44] WaitTime ETV
vector 274 DatabaseNetwork.user[113] ReadAccesses ETV
vector 275 DatabaseNetwork.user[113] WaitTime ETV
vector 276 DatabaseNetwork.user[6] WriteAccesses ETV
vector 277 DatabaseNetwork.user[0] ReadAccesses ETV
vector 278 DatabaseNetwork.user[92] WriteAccesses ETV
vector 279 DatabaseNetwork.user[6] WaitTime ETV
vector 280 DatabaseNetwork.user[92] WaitTime ETV
vector 281 DatabaseNetwork.user[0] WaitTime ETV
vector 282 DatabaseNetwork.user[138] ReadAccesses ETV
vector 283 DatabaseNetwork.user[138] WaitTime ETV
vector 284 DatabaseNetwork.user[114] ReadAccesses ETV
vector 285 DatabaseNetwork.user[61] ReadAccesses ETV
vector 286 DatabaseNetwork.user[60] WriteAccesses ETV
vector 287 DatabaseNetwork.user[95] ReadAccesses ETV
vector 288 DatabaseNetwork.user[63] WriteAccesses ETV
vector 289 DatabaseNetwork.user[60] WaitTime ETV
vector 290 DatabaseNetwork.user[95] WaitTime ETV
vector 291 DatabaseNetwork.user[63] WaitTime ETV
vector 292 DatabaseNetwork.user[125] WriteAccesses ETV
vector 293 DatabaseNetwork.user[66] ReadAccesses ETV
vector 294 DatabaseNetwork.user[125] WaitTime ETV
vector 295 DatabaseNetwork.user[7] ReadAccesses ETV
vector 296 DatabaseNetwork.user[17] ReadAccesses ETV
vector 297 DatabaseNetwork.user[66] WaitTime ETV
vector 298 DatabaseNetwork.user[7] WaitTime ETV
vector 299 DatabaseNetwork.user[17] WaitTime ETV
vector 300 DatabaseNetwork.user[34] WriteAccesses ETV
vector 301 DatabaseNetwork.user[49] ReadAccesses ETV
vector 302 DatabaseNetwork.user[34] WaitTime ETV
vector 303 DatabaseNetwork.user[49] WaitTime ETV
vector 304 DatabaseNetwork.user[25] WriteAccesses ETV
vector 305 DatabaseNetwork.user[82] ReadAccesses ETV
vector 306 DatabaseNetwork.user[25] WaitTime ETV
vector 307 DatabaseNetwork.user[82] WaitTime ETV
vector 308 DatabaseNetwork.user[119] WriteAccesses ETV
vector 309 DatabaseNetwork.user[140] ReadAccesses ETV
vector 310 DatabaseNetwork.user[68] ReadAccesses ETV
vector 311 DatabaseNetwork.user[40] ReadAccesses ETV
vector 312 DatabaseNetwork.user[119] WaitTime ETV
vector 313 DatabaseNetwork.user[140] WaitTime ETV
vector 314 DatabaseNetwork.user[68] WaitTime ETV
vector 315 DatabaseNetwork.user[40] WaitTime ETV
vector 316 DatabaseNetwork.user[81] ReadAccesses ETV
vector 317 DatabaseNetwork.user[81] WaitTime ETV
vector 318 DatabaseNetwork.user[26] WriteAccesses ETV
vector 319 DatabaseNetwork.user[107] ReadAccesses ETV
vector 320 DatabaseNetwork.user[26] WaitTime ETV
vector 321 DatabaseNetwork.user[139] ReadAccesses ETV
vector 322 DatabaseNetwork.user[107] WaitTime ETV
vector 323 DatabaseNetwork.user[139] WaitTime ETV
vector 324 DatabaseNetwork.user[104] ReadAccesses ETV
vector 325 DatabaseNetwork.user[130] WriteAccesses ETV
vector 326 DatabaseNetwork.user[130] WaitTime ETV
vector 327 DatabaseNetwork.user[22] WriteAccesses ETV
vector 328 DatabaseNetwork.user[22] WaitTime ETV
vector 329 DatabaseNetwork.user[96] WriteAccesses ETV
vector 330 DatabaseNetwork.user[96] WaitTime ETV
vector 331 DatabaseNetwork.user[100] ReadAccesses ETV
vector 332 DatabaseNetwork.user[33] ReadAccesses ETV
vector 333 DatabaseNetwork.user[100] WaitTime ETV
vector 334 DatabaseNetwork.user[33] WaitTime ETV
vector 335 DatabaseNetwork.user[4] ReadAccesses ETV
vector 336 DatabaseNetwork.user[4] WaitTime ETV
vector 337 DatabaseNetwork.user[143] ReadAccesses ETV
vector 338 DatabaseNetwork.user[143] WaitTime ETV
vector 339 DatabaseNetwork.user[125] ReadAccesses ETV
vector 340 DatabaseNetwork.user[25] ReadAccesses ETV
vector 341 DatabaseNetwork.user[51] ReadAccesses ETV
vector 342 DatabaseNetwork.user[88] ReadAccesses ETV
vector 343 DatabaseNetwork.user[51] WaitTime ETV
vector 344 DatabaseNetwork.user[88] WaitTime ETV
vector 345 DatabaseNetwork.user[145] WriteAccesses ETV
vector 346 DatabaseNetwork.user[145] WaitTime ETV
vector 347 DatabaseNetwork.user[57] ReadAccesses ETV
vector 348 DatabaseNetwork.user[100] WriteAccesses ETV
vector 349 DatabaseNetwork.user[57] WaitTime ETV
vector 350 DatabaseNetwork.user[74] ReadAccesses ETV
vector 351 DatabaseNetwork.user[74] WaitTime ETV
vector 352 DatabaseNetwork.user[27] WriteAccesses ETV
vector 353 DatabaseNetwork.user[27] WaitTime ETV
vector 354 DatabaseNetwork.user[75] WriteAccesses ETV
vector 355 DatabaseNetwork.user[93] ReadAccesses ETV
vector 356 DatabaseNetwork.user[50] ReadAccesses ETV
vector 357 DatabaseNetwork.user[50] WaitTime ETV
vector 358 DatabaseNetwork.user[122] WriteAccesses ETV
vector 359 DatabaseNetwork.user[122] WaitTime ETV
vector 360 DatabaseNetwork.user[71] WriteAccesses ETV
vector 361 DatabaseNetwork.user[71] WaitTime ETV
vector 362 DatabaseNetwork.user[14] ReadAccesses ETV
vector 363 DatabaseNetwork.user[20] ReadAccesses ETV
vector 364 DatabaseNetwork.user[14] WaitTime ETV
vector 365 DatabaseNetwork.user[20] WaitTime ETV
vector 366 DatabaseNetwork.user[142] WriteAccesses ETV
vector 367 DatabaseNetwork.user[90] WriteAccesses ETV
vector 368 DatabaseNetwork.user[6] ReadAccesses ETV
vector 369 DatabaseNetwork.user[140] WriteAccesses ETV
vector 370 DatabaseNetwork.user[19] ReadAccesses ETV
vector 371 DatabaseNetwork.user[19] WaitTime ETV
vector 372 DatabaseNetwork.user[64] ReadAccesses ETV
vector 373 DatabaseNetwork.user[97] WriteAccesses ETV
vector 374 DatabaseNetwork.user[64] WaitTime ETV
vector 375 DatabaseNetwork.user[83] WriteAccesses ETV
vector 376 DatabaseNetwork.user[65] ReadAccesses ETV
vector 377 DatabaseNetwork.user[65] WaitTime ETV
vector 378 DatabaseNetwork.user[69] ReadAccesses ETV
vector 379 DatabaseNetwork.user[69] WaitTime ETV
vector 380 DatabaseNetwork.user[144] WriteAccesses ETV
vector 381 DatabaseNetwork.user[146] ReadAccesses ETV
vector 382 DatabaseNetwork.user[28] ReadAccesses ETV
vector 383 DatabaseNetwork.user[23] ReadAccesses ETV
vector 384 DatabaseNetwork.user[23] WaitTime ETV
vector 385 DatabaseNetwork.user[54] WriteAccesses ETV
vector 386 DatabaseNetwork.user[15] ReadAccesses ETV
vector 387 DatabaseNetwork.user[62] ReadAccesses ETV
vector 388 DatabaseNetwork.user[87] WriteAccesses ETV
vector 389 DatabaseNetwork.user[45] ReadAccesses ETV
vector 390 DatabaseNetwork.user[13] ReadAccesses ETV
vector 391 DatabaseNetwork.user[60] ReadAccesses ETV
vector 392 DatabaseNetwork.user[13] WaitTime ETV
vector 393 DatabaseNetwork.user[78] ReadAccesses ETV
vector 394 DatabaseNetwork.user[22] ReadAccesses ETV
vector 395 DatabaseNetwork.user[121] ReadAccesses ETV
vector 396 DatabaseNetwork.user[78] WaitTime ETV
vector 397 DatabaseNetwork.user[121] WaitTime ETV
vector 398 DatabaseNetwork.user[0] WriteAccesses ETV
vector 399 DatabaseNetwork.user[123] ReadAccesses ETV
vector 400 DatabaseNetwork.user[123] WaitTime ETV
vector 401 DatabaseNetwork.user[137] ReadAccesses ETV
vector 402 DatabaseNetwork.user[137] WaitTime ETV
vector 403 DatabaseNetwork.user[49] WriteAccesses ETV
vector 404 DatabaseNetwork.user[29] ReadAccesses ETV
vector 405 DatabaseNetwork.user[29] WaitTime ETV
vector 406 DatabaseNetwork.user[88] WriteAccesses ETV
vector 407 DatabaseNetwork.user[26] ReadAccesses ETV
vector 408 DatabaseNetwork.user[2] WriteAccesses ETV
vector 409 DatabaseNetwork.user[65] WriteAccesses ETV
vector 410 DatabaseNetwork.user[4] WriteAccesses ETV
vector 411 DatabaseNetwork.user[111] ReadAccesses ETV
vector 412 DatabaseNetwork.user[111] WaitTime ETV
vector 413 DatabaseNetwork.user[19] WriteAccesses ETV
vector 414 DatabaseNetwork.user[133] ReadAccesses ETV
vector 415 DatabaseNetwork.user[133] WaitTime ETV
vector 416 DatabaseNetwork.user[122] ReadAccesses ETV
vector 417 DatabaseNetwork.user[124] ReadAccesses ETV
vector 418 DatabaseNetwork.user[124] WaitTime ETV
vector 419 DatabaseNetwork.user[78] WriteAccesses ETV
vector 420 DatabaseNetwork.user[55] ReadAccesses ETV
vector 421 DatabaseNetwork.user[55] WaitTime ETV
vector 422 DatabaseNetwork.user[94] ReadAccesses ETV
vector 423 DatabaseNetwork.user[94] WaitTime ETV
vector 424 DatabaseNetwork.user[1] ReadAccesses ETV
vector 425 DatabaseNetwork.user[30] ReadAccesses ETV
vector 426 DatabaseNetwork.user[13] WriteAccesses ETV
vector 427 DatabaseNetwork.user[30] WaitTime ETV
vector 428 DatabaseNetwork.user[67] WriteAccesses ETV
vector 429 DatabaseNetwork.user[16] WriteAccesses ETV
vector 430 DatabaseNetwork.user[72] ReadAccesses ETV
vector 431 DatabaseNetwork.user[67] WaitTime ETV
vector 432 DatabaseNetwork.user[72] WaitTime ETV
vector 433 DatabaseNetwork.user[99] WriteAccesses ETV
vector 434 DatabaseNetwork.user[99] WaitTime ETV
vector 435 DatabaseNetwork.user[120] WriteAccesses ETV
vector 436 DatabaseNetwork.user[120] WaitTime ETV
vector 437 DatabaseNetwork.user[91] ReadAccesses ETV
vector 438 DatabaseNetwork.user[91] WaitTime ETV
vector 439 DatabaseNetwork.user[130] ReadAccesses ETV
vector 440 DatabaseNetwork.user[101] ReadAccesses ETV
vector 441 DatabaseNetwork.user[101] WaitTime ETV
vector 442 DatabaseNetwork.user[21] ReadAccesses ETV
vector 443 DatabaseNetwork.user[21] WaitTime ETV
vector 444 DatabaseNetwork.user[89] WriteAccesses ETV
vector 445 DatabaseNetwork.user[68] WriteAccesses ETV
vector 446 DatabaseNetwork.user[105] ReadAccesses ETV
vector 447 DatabaseNetwork.user[105] WaitTime ETV
vector 448 DatabaseNetwork.user[11] WriteAccesses ETV
vector 449 DatabaseNetwork.user[148] ReadAccesses ETV
vector 450 DatabaseNetwork.user[148] WaitTime ETV
vector 451 DatabaseNetwork.user[21] WriteAccesses ETV
vector 452 DatabaseNetwork.user[36] ReadAccesses ETV
vector 453 DatabaseNetwork.user[71] ReadAccesses ETV
vector 454 DatabaseNetwork.user[36] WaitTime ETV
vector 455 DatabaseNetwork.user[106] ReadAccesses ETV
vector 456 DatabaseNetwork.user[63] ReadAccesses ETV
vector 457 DatabaseNetwork.user[106] WaitTime ETV
vector 458 DatabaseNetwork.user[79] ReadAccesses ETV
vector 459 DatabaseNetwork.user[79] WaitTime ETV
vector 460 DatabaseNetwork.user[32] ReadAccesses ETV
vector 461 DatabaseNetwork.user[32] WaitTime ETV
vector 462 DatabaseNetwork.user[139] WriteAccesses ETV
vector 463 DatabaseNetwork.user[91] WriteAccesses ETV
vector 464 DatabaseNetwork.user[128] WriteAccesses ETV
vector 465 DatabaseNetwork.user[120] ReadAccesses ETV
vector 466 DatabaseNetwork.user[55] WriteAccesses ETV
vector 467 DatabaseNetwork.user[77] WriteAccesses ETV
vector 468 DatabaseNetwork.user[34] ReadAccesses ETV
vector 469 DatabaseNetwork.user[35] WriteAccesses ETV
vector 470 DatabaseNetwork.user[141] ReadAccesses ETV
vector 471 DatabaseNetwork.user[141] WaitTime ETV
vector 472 DatabaseNetwork.user[76] WriteAccesses ETV
vector 473 DatabaseNetwork.user[99] ReadAccesses ETV
vector 474 DatabaseNetwork.user[115] ReadAccesses ETV
vector 475 DatabaseNetwork.user[115] WaitTime ETV
vector 476 DatabaseNetwork.user[84] WriteAccesses ETV
vector 477 DatabaseNetwork.user[84] WaitTime ETV
vector 478 DatabaseNetwork.user[84] ReadAccesses ETV
vector 479 DatabaseNetwork.user[42] WriteAccesses ETV
vector 480 DatabaseNetwork.user[105] WriteAccesses ETV
vector 481 DatabaseNetwork.user[138] WriteAccesses ETV
vector 482 DatabaseNetwork.user[43] WriteAccesses ETV
vector 483 DatabaseNetwork.user[110] WriteAccesses ETV
vector 484 DatabaseNetwork.user[8] ReadAccesses ETV
vector 485 DatabaseNetwork.user[124] WriteAccesses ETV
vector 486 DatabaseNetwork.user[115] WriteAccesses ETV
vector 487 DatabaseNetwork.user[92] ReadAccesses ETV
vector 488 DatabaseNetwork.user[134] WriteAccesses ETV
vector 489 DatabaseNetwork.user[7] WriteAccesses ETV
vector 490 DatabaseNetwork.user[27] ReadAccesses ETV
vector 491 DatabaseNetwork.user[149] ReadAccesses ETV
vector 492 DatabaseNetwork.user[40] WriteAccesses ETV
vector 493 DatabaseNetwork.user[149] WaitTime ETV
vector 494 DatabaseNetwork.user[3] WriteAccesses ETV
vector 495 DatabaseNetwork.user[3] WaitTime ETV
vector 496 DatabaseNetwork.user[135] ReadAccesses ETV
vector 497 DatabaseNetwork.user[135] WaitTime ETV
vector 498 DatabaseNetwork.user[37] WriteAccesses ETV
vector 499 DatabaseNetwork.user[23] WriteAccesses ETV
vector 500 DatabaseNetwork.user[117] ReadAccesses ETV
vector 501 DatabaseNetwork.user[74] WriteAccesses ETV
vector 502 DatabaseNetwork.user[117] WaitTime ETV
vector 503 DatabaseNetwork.user[72] WriteAccesses ETV
vector 504 DatabaseNetwork.user[5] WriteAccesses ETV
vector 505 DatabaseNetwork.user[5] WaitTime ETV
vector 506 DatabaseNetwork.user[103] ReadAccesses ETV
vector 507 DatabaseNetwork.user[103] WaitTime ETV
vector 508 DatabaseNetwork.user[98] ReadAccesses ETV
vector 509 DatabaseNetwork.user[98] WaitTime ETV
vector 510 DatabaseNetwork.user[127] ReadAccesses ETV
vector 511 DatabaseNetwork.user[127] WaitTime ETV
vector 512 DatabaseNetwork.user[123] WriteAccesses ETV
vector 513 DatabaseNetwork.user[12] WriteAccesses ETV
vector 514 DatabaseNetwork.user[80] WriteAccesses ETV
vector 515 DatabaseNetwork.user[80] WaitTime ETV
vector 516 DatabaseNetwork.user[82] WriteAccesses ETV
vector 517 DatabaseNetwork.user[39] WriteAccesses ETV
vector 518 DatabaseNetwork.user[39] WaitTime ETV
vector 519 DatabaseNetwork.user[118] WriteAccesses ETV
vector 520 DatabaseNetwork.user[118] WaitTime ETV
vector 521 DatabaseNetwork.user[96] ReadAccesses ETV
vector 522 DatabaseNetwork.user[24] ReadAccesses ETV
vector 523 DatabaseNetwork.user[86] WriteAccesses ETV
vector 524 DatabaseNetwork.user[5] ReadAccesses ETV
vector 525 DatabaseNetwork.user[95] WriteAccesses ETV
vector 526 DatabaseNetwork.user[113] WriteAccesses ETV
vector 527 DatabaseNetwork.user[111] WriteAccesses ETV
vector 528 DatabaseNetwork.user[47] WriteAccesses ETV
vector 529 DatabaseNetwork.user[80] ReadAccesses ETV
vector 530 DatabaseNetwork.user[136] WriteAccesses ETV
vector 531 DatabaseNetwork.user[136] WaitTime ETV
vector 532 DatabaseNetwork.user[112] WriteAccesses ETV
vector 533 DatabaseNetwork.user[67] ReadAccesses ETV
vector 534 DatabaseNetwork.user[121] WriteAccesses ETV
vector 535 DatabaseNetwork.user[118] ReadAccesses ETV
vector 536 DatabaseNetwork.user[33] WriteAccesses ETV
vector 537 DatabaseNetwork.user[50] WriteAccesses ETV
vector 538 DatabaseNetwork.user[58] WriteAccesses ETV
vector 539 DatabaseNetwork.user[3] ReadAccesses ETV
vector 540 DatabaseNetwork.user[94] WriteAccesses ETV
vector 541 DatabaseNetwork.user[14] WriteAccesses ETV
vector 542 DatabaseNetwork.user[73] WriteAccesses ETV
vector 543 DatabaseNetwork.user[73] WaitTime ETV
vector 544 DatabaseNetwork.user[32] WriteAccesses ETV
vector 545 DatabaseNetwork.user[107] WriteAccesses ETV
vector 546 DatabaseNetwork.user[52] WriteAccesses ETV