file 2894911 1767628862                                         
version 3
run Uniform-21-20260105-17:01:02-25051
attr configname Uniform
attr datetime 20260105-17:01:02
attr datetimef 20260105-170102
attr experiment Uniform
attr inifile omnetpp.ini
attr iterationvars "$N=50, $p=0.9"
attr iterationvarsd N=50/p=0.9
attr iterationvarsf N=50,p=0.9-
attr measurement "$N=50, $p=0.9"
attr network progetto.DatabaseNetwork
attr processid 25051
attr repetition 1
attr replication #1
attr resultdir results
attr runnumber 21
attr seedset 1
itervar N 50
itervar p 0.9
config description "Uniform distribution - varia N e p"
config *.user[*].tableDistribution "\"uniform\""
config *.numUsers 50
config *.user[*].readProbability 0.9
config network progetto.DatabaseNetwork
config sim-time-limit 10000s
config cpu-time-limit 3600s
config repeat 5
config seed-set 1
config output-vector-file "results/Uniform-$N=50, $p=0.9-1.vec"
config output-scalar-file "results/Uniform-$N=50, $p=0.9-1.sca"
config result-dir results
config **.vector-recording true
config **.scalar-recording true
config *.numTables 20
config *.user[*].lambda 0.05
config *.user[*].serviceTime 0.1s

vector 0 DatabaseNetwork.user[0] AccessInterval ETV
vector 1 DatabaseNetwork.user[1] AccessInterval ETV
vector 2 DatabaseNetwork.user[2] AccessInterval ETV
vector 3 DatabaseNetwork.user[3] AccessInterval ETV
vector 4 DatabaseNetwork.user[4] AccessInterval ETV
vector 5 DatabaseNetwork.user[5] AccessInterval ETV
vector 6 DatabaseNetwork.user[6] AccessInterval ETV
vector 7 DatabaseNetwork.user[7] AccessInterval ETV
vector 8 DatabaseNetwork.user[8] AccessInterval ETV
vector 9 DatabaseNetwork.user[9] AccessInterval ETV
vector 10 DatabaseNetwork.user[10] AccessInterval ETV
vector 11 DatabaseNetwork.user[11] AccessInterval ETV
vector 12 DatabaseNetwork.user[12] AccessInterval ETV
vector 13 DatabaseNetwork.user[13] AccessInterval ETV
vector 14 DatabaseNetwork.user[14] AccessInterval ETV
vector 15 DatabaseNetwork.user[15] AccessInterval ETV
vector 16 DatabaseNetwork.user[16] AccessInterval ETV
vector 17 DatabaseNetwork.user[17] AccessInterval ETV
vector 18 DatabaseNetwork.user[18] AccessInterval ETV
vector 19 DatabaseNetwork.user[19] AccessInterval ETV
vector 20 DatabaseNetwork.user[20] AccessInterval ETV
vector 21 DatabaseNetwork.user[21] AccessInterval ETV
vector 22 DatabaseNetwork.user[22] AccessInterval ETV
vector 23 DatabaseNetwork.user[23] AccessInterval ETV
vector 24 DatabaseNetwork.user[24] AccessInterval ETV
vector 25 DatabaseNetwork.user[25] AccessInterval ETV
vector 26 DatabaseNetwork.user[26] AccessInterval ETV
vector 27 DatabaseNetwork.user[27] AccessInterval ETV
vector 28 DatabaseNetwork.user[28] AccessInterval ETV
vector 29 DatabaseNetwork.user[29] AccessInterval ETV
vector 30 DatabaseNetwork.user[30] AccessInterval ETV
vector 31 DatabaseNetwork.user[31] AccessInterval ETV
vector 32 DatabaseNetwork.user[32] AccessInterval ETV
vector 33 DatabaseNetwork.user[33] AccessInterval ETV
vector 34 DatabaseNetwork.user[34] AccessInterval ETV
vector 35 DatabaseNetwork.user[35] AccessInterval ETV
vector 36 DatabaseNetwork.user[36] AccessInterval ETV
vector 37 DatabaseNetwork.user[37] AccessInterval ETV
vector 38 DatabaseNetwork.user[38] AccessInterval ETV
vector 39 DatabaseNetwork.user[39] AccessInterval ETV
vector 40 DatabaseNetwork.user[40] AccessInterval ETV
vector 41 DatabaseNetwork.user[41] AccessInterval ETV
vector 42 DatabaseNetwork.user[42] AccessInterval ETV
vector 43 DatabaseNetwork.user[43] AccessInterval ETV
vector 44 DatabaseNetwork.user[44] AccessInterval ETV
vector 45 DatabaseNetwork.user[45] AccessInterval ETV
vector 46 DatabaseNetwork.user[46] AccessInterval ETV
vector 47 DatabaseNetwork.user[47] AccessInterval ETV
vector 48 DatabaseNetwork.user[48] AccessInterval ETV
vector 49 DatabaseNetwork.user[49] AccessInterval ETV
vector 50 DatabaseNetwork.user[4] ReadAccesses ETV
vector 51 DatabaseNetwork.user[4] WaitTime ETV
vector 52 DatabaseNetwork.user[28] ReadAccesses ETV
vector 53 DatabaseNetwork.user[28] WaitTime ETV
vector 54 DatabaseNetwork.user[10] ReadAccesses ETV
vector 55 DatabaseNetwork.user[45] ReadAccesses ETV
vector 56 DatabaseNetwork.user[10] WaitTime ETV
vector 57 DatabaseNetwork.user[45] WaitTime ETV
vector 58 DatabaseNetwork.user[5] ReadAccesses ETV
vector 59 DatabaseNetwork.user[5] WaitTime ETV
vector 60 DatabaseNetwork.user[36] ReadAccesses ETV
vector 61 DatabaseNetwork.user[36] WaitTime ETV
vector 62 DatabaseNetwork.user[8] ReadAccesses ETV
vector 63 DatabaseNetwork.user[8] WaitTime ETV
vector 64 DatabaseNetwork.user[12] ReadAccesses ETV
vector 65 DatabaseNetwork.user[12] WaitTime ETV
vector 66 DatabaseNetwork.user[38] ReadAccesses ETV
vector 67 DatabaseNetwork.user[38] WaitTime ETV
vector 68 DatabaseNetwork.user[24] ReadAccesses ETV
vector 69 DatabaseNetwork.user[24] WaitTime ETV
vector 70 DatabaseNetwork.user[27] ReadAccesses ETV
vector 71 DatabaseNetwork.user[27] WaitTime ETV
vector 72 DatabaseNetwork.user[9] ReadAccesses ETV
vector 73 DatabaseNetwork.user[9] WaitTime ETV
vector 74 DatabaseNetwork.user[12] WriteAccesses ETV
vector 75 DatabaseNetwork.user[6] ReadAccesses ETV
vector 76 DatabaseNetwork.user[6] WaitTime ETV
vector 77 DatabaseNetwork.user[21] ReadAccesses ETV
vector 78 DatabaseNetwork.user[44] ReadAccesses ETV
vector 79 DatabaseNetwork.user[21] WaitTime ETV
vector 80 DatabaseNetwork.user[44] WaitTime ETV
vector 81 DatabaseNetwork.user[14] ReadAccesses ETV
vector 82 DatabaseNetwork.user[14] WaitTime ETV
vector 83 DatabaseNetwork.user[13] ReadAccesses ETV
vector 84 DatabaseNetwork.user[13] WaitTime ETV
vector 85 DatabaseNetwork.user[11] ReadAccesses ETV
vector 86 DatabaseNetwork.user[16] ReadAccesses ETV
vector 87 DatabaseNetwork.user[11] WaitTime ETV
vector 88 DatabaseNetwork.user[16] WaitTime ETV
vector 89 DatabaseNetwork.user[0] WriteAccesses ETV
vector 90 DatabaseNetwork.user[32] ReadAccesses ETV
vector 91 DatabaseNetwork.user[20] ReadAccesses ETV
vector 92 DatabaseNetwork.user[0] WaitTime ETV
vector 93 DatabaseNetwork.user[32] WaitTime ETV
vector 94 DatabaseNetwork.user[20] WaitTime ETV
vector 95 DatabaseNetwork.user[35] WriteAccesses ETV
vector 96 DatabaseNetwork.user[35] WaitTime ETV
vector 97 DatabaseNetwork.user[25] ReadAccesses ETV
vector 98 DatabaseNetwork.user[25] WaitTime ETV
vector 99 DatabaseNetwork.user[33] ReadAccesses ETV
vector 100 DatabaseNetwork.user[33] WaitTime ETV
vector 101 DatabaseNetwork.user[47] ReadAccesses ETV
vector 102 DatabaseNetwork.user[47] WaitTime ETV
vector 103 DatabaseNetwork.user[23] WriteAccesses ETV
vector 104 DatabaseNetwork.user[23] WaitTime ETV
vector 105 DatabaseNetwork.user[29] ReadAccesses ETV
vector 106 DatabaseNetwork.user[29] WaitTime ETV
vector 107 DatabaseNetwork.user[18] ReadAccesses ETV
vector 108 DatabaseNetwork.user[18] WaitTime ETV
vector 109 DatabaseNetwork.user[34] ReadAccesses ETV
vector 110 DatabaseNetwork.user[34] WaitTime ETV
vector 111 DatabaseNetwork.user[35] ReadAccesses ETV
vector 112 DatabaseNetwork.user[15] ReadAccesses ETV
vector 113 DatabaseNetwork.user[30] ReadAccesses ETV
vector 114 DatabaseNetwork.user[15] WaitTime ETV
vector 115 DatabaseNetwork.user[30] WaitTime ETV
vector 116 DatabaseNetwork.user[22] ReadAccesses ETV
vector 117 DatabaseNetwork.user[22] WaitTime ETV
vector 118 DatabaseNetwork.user[11] WriteAccesses ETV
vector 119 DatabaseNetwork.user[46] ReadAccesses ETV
vector 120 DatabaseNetwork.user[46] WaitTime ETV
vector 121 DatabaseNetwork.user[41] ReadAccesses ETV
vector 122 DatabaseNetwork.user[41] WaitTime ETV
vector 123 DatabaseNetwork.user[23] ReadAccesses ETV
vector 124 DatabaseNetwork.user[2] ReadAccesses ETV
vector 125 DatabaseNetwork.user[2] WaitTime ETV
vector 126 DatabaseNetwork.user[0] ReadAccesses ETV
vector 127 DatabaseNetwork.user[14] WriteAccesses ETV
vector 128 DatabaseNetwork.user[39] ReadAccesses ETV
vector 129 DatabaseNetwork.user[39] WaitTime ETV
vector 130 DatabaseNetwork.user[40] ReadAccesses ETV
vector 131 DatabaseNetwork.user[40] WaitTime ETV
vector 132 DatabaseNetwork.user[43] ReadAccesses ETV
vector 133 DatabaseNetwork.user[43] WaitTime ETV
vector 134 DatabaseNetwork.user[4] WriteAccesses ETV
vector 135 DatabaseNetwork.user[19] ReadAccesses ETV
vector 136 DatabaseNetwork.user[19] WaitTime ETV
vector 137 DatabaseNetwork.user[49] ReadAccesses ETV
vector 138 DatabaseNetwork.user[49] WaitTime ETV
vector 139 DatabaseNetwork.user[48] ReadAccesses ETV
vector 140 DatabaseNetwork.user[48] WaitTime ETV
vector 141 DatabaseNetwork.user[26] ReadAccesses ETV
vector 142 DatabaseNetwork.user[26] WaitTime ETV
vector 143 DatabaseNetwork.user[5] WriteAccesses ETV
vector 144 DatabaseNetwork.user[22] WriteAccesses ETV
vector 145 DatabaseNetwork.user[31] ReadAccesses ETV
vector 146 DatabaseNetwork.user[31] WaitTime ETV
vector 147 DatabaseNetwork.user[13] WriteAccesses ETV
vector 148 DatabaseNetwork.user[3] ReadAccesses ETV
vector 149 DatabaseNetwork.user[3] WaitTime ETV
vector 150 DatabaseNetwork.user[17] ReadAccesses ETV
vector 151 DatabaseNetwork.user[17] WaitTime ETV
vector 152 DatabaseNetwork.user[37] ReadAccesses ETV
vector 153 DatabaseNetwork.user[37] WaitTime ETV
vector 154 DatabaseNetwork.user[42] ReadAccesses ETV
vector 155 DatabaseNetwork.user[42] WaitTime ETV
vector 156 DatabaseNetwork.user[10] WriteAccesses ETV
vector 157 DatabaseNetwork.user[46] WriteAccesses ETV
vector 158 DatabaseNetwork.user[31] WriteAccesses ETV
vector 159 DatabaseNetwork.user[37] WriteAccesses ETV
vector 160 DatabaseNetwork.user[25] WriteAccesses ETV
vector 161 DatabaseNetwork.user[45] WriteAccesses ETV
vector 162 DatabaseNetwork.user[18] WriteAccesses ETV
vector 163 DatabaseNetwork.user[2] WriteAccesses ETV
vector 164 DatabaseNetwork.user[36] WriteAccesses ETV
vector 165 DatabaseNetwork.user[28] WriteAccesses ETV
vector 166 DatabaseNetwork.user[20] WriteAccesses ETV
vector 167 DatabaseNetwork.user[16] WriteAccesses ETV
vector 168 DatabaseNetwork.user[1] ReadAccesses ETV
vector 169 DatabaseNetwork.user[1] WaitTime ETV
vector 170 DatabaseNetwork.user[33] WriteAccesses ETV
vector 171 DatabaseNetwork.user[8] WriteAccesses ETV
vector 172 DatabaseNetwork.user[7] ReadAccesses ETV
vector 173 DatabaseNetwork.user[7] WaitTime ETV
vector 174 DatabaseNetwork.user[32] WriteAccesses ETV
vector 175 DatabaseNetwork.user[17] WriteAccesses ETV
vector 176 DatabaseNetwork.user[44] WriteAccesses ETV
vector 177 DatabaseNetwork.user[21] WriteAccesses ETV
vector 178 DatabaseNetwork.user[7] WriteAccesses ETV
vector 179 DatabaseNetwork.user[42] WriteAccesses ETV
vector 180 DatabaseNetwork.user[24] WriteAccesses ETV
vector 181 DatabaseNetwork.user[38] WriteAccesses ETV
vector 182 DatabaseNetwork.user[15] WriteAccesses ETV
vector 183 DatabaseNetwork.user[43] WriteAccesses ETV
vector 184 DatabaseNetwork.user[34] WriteAccesses ETV
vector 185 DatabaseNetwork.user[6] WriteAccesses ETV
vector 186 DatabaseNetwork.user[19] WriteAccesses ETV
vector 187 DatabaseNetwork.user[30] WriteAccesses ETV
vector 188 DatabaseNetwork.user[27] WriteAccesses ETV
vector 189 DatabaseNetwork.user[40] WriteAccesses ETV
vector 190 DatabaseNetwork.user[41] WriteAccesses ETV
vector 191 DatabaseNetwork.user[39] WriteAccesses ETV
vector 192 DatabaseNetwork.user[1] WriteAccesses ETV
vector 193 DatabaseNetwork.user[47] WriteAccesses ETV
vector 194 DatabaseNetwork.user[29] WriteAccesses ETV
vector 195 DatabaseNetwork.user[9] WriteAccesses ETV
vector 196 DatabaseNetwork.user[3] WriteAccesses ETV
vector 197 DatabaseNetwork.user[26] WriteAccesses ETV
vector 198 DatabaseNetwork.user[49] WriteAccesses ETV
vector 199 DatabaseNetwork.user[48] WriteAccesses ETV
0	11494 21839 0 98997 0 9975.889240837011 525 0.051234964984868 110.84295371163 10011.368786437 362107.65807604
1	33333 21463 0 98843 0 9963.033042025102 516 0.028812712126022 143.04623340627 10032.157358047 412635.44619447
2	54796 21431 0 99089 0 9987.549122327999 516 0.0096988255991887 138.69600834884 10022.653325311 389571.05528406
3	76227 20205 0 98447 0 9926.396825802517 486 0.0089321996753779 162.44347657589 10016.745022246 417749.54729922
4	96432 19144 0 99115 0 9990.11807412227 461 0.0022877524501596 143.15974534675 10006.388482198 422252.41762475
5	115576 20026 0 98677 0 9949.427426591918 482 0.16732727190766 188.71159600345 10022.980594614 423914.13925166
6	135602 21600 0 98909 0 9966.955448889771 520 0.0047694757447799 189.74195071835 10008.780151998 389988.02298529
7	157202 20360 0 99031 0 9980.456655506023 489 0.031380891463851 168.15603931475 10003.638152089 440802.55820693
8	177562 20240 0 98727 0 9953.323081334019 487 0.031733389360898 183.7954060235 10010.668256291 426507.25363029
9	197802 20142 0 98965 0 9972.026584065267 485 0.061511334387973 122.31986769862 10002.968917605 404520.78379457
10	217944 21861 0 99179 0 9996.153595328499 514 0.024240820074891 115.40043658838 10097.894385185 393573.15581006
11	239805 21990 0 98651 0 9944.782361932636 517 0.0062286866162945 151.63122362319 10003.837033264 427613.91535108
12	261795 22372 0 98347 0 9913.015986762539 526 0.032509817053472 150.63219787254 10028.60736603 412703.43293712
13	284167 20395 0 97875 0 9862.891699403547 480 0.10111233552027 166.12095365188 10000.203222874 447049.02536099
14	304562 20719 0 99061 0 9983.436781929749 487 0.0098736877915384 144.06945097505 10127.506232905 449321.83411385
15	325281 20168 0 99133 0 9990.421957350433 474 0.031648457969333 139.59973387613 10043.838416591 431682.22753939
16	345449 20713 0 99197 0 9999.088161890493 487 0.010371363658346 122.17557611469 10007.784195932 409546.53435077
17	366162 18646 0 98985 0 9974.511411404623 438 0.023655411927899 155.38097481153 10016.397536558 449497.43267655
18	384808 20318 0 98993 0 9975.053289071569 477 0.023151116350428 154.04314371709 10008.834674367 424139.1886549
19	405126 20312 0 99185 0 9996.501166250001 477 0.037590327724863 129.90963351858 10001.883497208 423658.17018165
20	425438 20759 0 99141 0 9991.081582127087 488 0.003767209999471 102.98281600494 10008.774996737 385050.2339868
21	446197 21759 0 99173 0 9996.029940310807 511 0.014823681847273 130.45124485531 10022.830893015 401082.13686654
22	467956 21175 0 99189 0 9996.727910120343 498 0.011596222424663 133.87975209946 10047.905560918 399316.12541666
23	489131 23304 0 99037 0 9980.886179092497 548 0.071418434536173 116.17496978233 10046.676896709 375156.84811746
24	512435 20931 0 99005 0 9976.920251325624 492 0.070974656299187 174.09663289428 10003.710000559 407995.25313477
25	533366 20812 0 99025 0 9979.0764662856 489 0.0048817737732884 126.21822025211 10076.599803519 393982.84672549
26	554178 21630 0 99175 0 9996.099086575689 508 0.0074573910385494 123.80142411281 10026.590913603 389069.39823953
27	575808 22701 0 98745 0 9954.839102559341 533 0.022180687342159 138.4521635458 10002.702403629 386462.56454677
28	598509 19881 0 98921 0 9967.568536978461 467 0.038335942919895 125.72276001175 10005.973634176 419061.84932771
29	618390 21586 0 98877 0 9965.361969969297 507 0.031844005926585 92.174258355465 10016.645391552 378112.26180373
30	639976 22934 0 99113 0 9990.048077149955 539 0.045043553774284 111.06735699411 10003.773485638 353727.99835727
31	662910 20935 0 98715 0 9952.711255452232 492 0.020866145854828 104.8301977308 10046.409975537 398961.72890731
32	683845 19057 0 99105 0 9989.013592909989 448 0.026255749994766 146.54077052811 10023.748901511 481512.43750092
33	702902 21974 0 99101 0 9988.773738948348 516 0.11248577557766 124.626161655 10005.892468732 399477.57612625
34	724876 19899 0 99085 0 9987.092463379813 468 0.099623511728748 184.22710797948 10001.299993382 456918.37845738
35	744775 20362 0 99041 0 9981.2914297979 478 0.036774659823825 114.29960541522 10048.87649311 436332.52201227
36	765137 21825 0 99159 0 9994.194035165176 512 0.022314466892583 147.56704718234 10001.046285147 436308.20717275
37	786962 21323 0 99051 0 9981.859425766796 500 0.010699091710082 128.92525215641 10001.527156729 380338.95695989
38	808285 22393 0 99155 0 9994.157991223938 526 0.0091809521365116 131.53743934764 10009.260088695 378272.37721508
39	830678 21208 0 99153 0 9994.074619234545 498 0.1141889729258 122.40810658407 10001.229798784 416860.55747372
40	851886 23158 0 99069 0 9984.492289351598 544 0.04482422403855 133.22995350311 10037.95344077 356762.32269579
41	875044 21728 0 99043 0 9981.369724825493 510 0.092962868936504 150.30015386236 10009.00020158 411112.7136882
42	896772 20304 0 99093 0 9987.896369777813 477 0.093955143935072 143.74399646172 10022.358866656 415585.29429196
43	917076 22243 0 98999 0 9975.955210665808 522 0.059105702851395 174.67491564188 10017.047747925 404614.23371105
44	939319 20133 0 99077 0 9986.605002957682 473 0.027238299938806 131.73367803842 10003.197629655 440330.06255774
45	959452 19691 0 99057 0 9982.833272019833 463 0.023856965881187 136.13899530595 10029.664709483 424003.36090863
46	979143 21528 0 99149 0 9992.829674654064 506 0.039611814825651 127.76620391215 10003.384897046 370912.25658411
47	1000671 20829 0 99193 0 9997.29731205588 489 0.022519802085586 176.25530530162 10035.628683355 417476.48387008
48	1021500 21119 0 98625 0 9941.676306480286 496 0.013158788942488 116.58926275025 10010.871052698 387733.37725995
49	1042619 21666 0 99073 0 9986.462686226817 508 0.018667859742578 99.138065853756 10018.85084434 374065.57823229
50	1064285 11575 1 99115 0.00228775245 9990.11807412227 404 1 1 404 404
51	1075860 20251 4 99122 0.10228775245 9990.21807412227 460 0.099999999998545 0.10000000000036 46.000000000001 4.6000000000002
52	1096111 11648 5 98761 0.555392552337 9955.484756342482 406 1 1 406 406
53	1107759 20550 8 98926 0.655392552337 9967.668536978461 466 0.099999999998545 0.1631590940699 46.663159094076 4.676620889979
54	1128309 13418 9 99165 1.937677450053 9995.30003131005 469 1 1 469 469
55	1141727 11793 11 99057 1.947864782496 9982.833272019833 412 1 1 412 412
56	1153520 22519 14 99184 2.037677450053 9996.253595328499 513 0.099999999998545 0.19880657395424 51.398806573945 5.1595240538456
57	1176039 20350 16 99060 2.047864782496 9982.933272019833 462 0.099999999998545 0.14486226597546 46.244862265975 4.6309850761034
58	1196389 12183 17 98473 2.742171611863 9928.765567896204 425 1 1 425 425
59	1208572 21131 20 98680 2.842171611863 9949.527426591918 481 0.099999999998545 0.19047823010624 48.247061326343 4.8508002221728
60	1229703 13372 21 99159 3.025458353437 9994.194035165176 466 1 1 466 466
61	1243075 22542 24 99164 3.125458353437 9994.294035165176 511 0.099999999998545 0.12128650942395 51.13186509523 5.1169380410071
62	1265617 12594 25 98727 3.174191944526 9953.323081334019 440 1 1 440 440
63	1278211 21400 28 98732 3.274191944526 9953.423081334019 486 0.099999999998545 0.18933055619345 48.78469109745 4.9107781257665
64	1299611 13601 29 98347 4.122292679277 9913.015986762539 475 1 1 475 475
65	1313212 23056 32 98352 4.222292679277 9913.115986762539 525 0.099999999998545 0.10000000000036 52.500000000001 5.2500000000003
66	1336268 13693 37 99155 4.415464337692 9994.157991223938 478 1 1 478 478
67	1349961 23110 40 99162 4.515464337692 9994.257991223938 525 0.099999999998545 0.10000000000036 52.500000000008 5.2500000000015
68	1373071 11935 41 99005 4.574488131862 9976.920251325624 417 1 1 417 417
69	1385006 21624 44 99008 4.674488131862 9977.020251325624 491 0.099999999998545 0.12826982731167 49.142497342193 4.9195010737549
70	1406630 13740 49 98745 5.216316998776 9954.839102559341 479 1 1 479 479
71	1420370 23473 52 98748 5.316316998776 9954.939102559341 532 0.099999999998545 0.10000000000036 53.199999999993 5.3199999999985
72	1443843 12383 53 98965 5.386079153525 9972.026584065267 433 1 1 433 433
73	1456226 21299 56 98968 5.486079153525 9972.126584065267 484 0.099999999998545 0.1570179145001 48.513747492334 4.8692187860438
74	1477525 1429 61 97821 6.732700642803 9857.404622955567 50 1 1 50 50
75	1478954 13166 67 98909 7.200254957118 9966.955448889771 460 1 1 460 460
76	1492120 22861 72 98912 7.300254957118 9967.055448889771 519 0.099999999998545 0.17099268851098 51.988591912489 5.2130680770046
77	1514981 13153 73 99173 7.516383853158 9996.029940310807 459 1 1 459 459
78	1528134 12335 75 99077 7.520772448292 9986.605002957682 430 1 1 430 430
79	1540469 22488 78 99178 7.616383853158 9996.129940310807 510 0.099999999998545 0.10011392262277 51.000113922617 5.1000227975018
80	1562957 20779 80 99080 7.620772448292 9986.705002957682 472 0.099999999998545 0.12945129488799 47.229451294897 4.72675763775
81	1583736 12534 81 99061 8.479529576145 9983.436781929749 438 1 1 438 438
82	1596270 21307 84 99064 8.579529576145 9983.536781929749 486 0.099999999998545 0.10000000000036 48.6 4.86
83	1617577 12260 85 97875 9.81754315573 9862.891699403547 429 1 1 429 429
84	1629837 21031 88 97882 9.91754315573 9862.991699403547 479 0.099999999998545 0.17752480116724 48.036227420174 4.8267015763094
85	1650868 13100 89 98651 10.102860213487 9944.782361932636 458 1 1 458 458
86	1663968 12793 91 99197 10.109050649433 9999.088161890493 447 1 1 447 447
87	1676761 22679 94 98658 10.202860213487 9944.882361932636 516 0.099999999998545 0.18817883930478 51.688178839304 5.1854112755619
88	1699440 21394 96 99200 10.209050649433 9999.188161890493 486 0.099999999998545 0.10353226128518 48.60353226129 4.8607189291277
89	1720834 1235 101 95645 10.792116530237 9634.697143211595 43 1 1 43 43
90	1722069 11611 103 99105 10.801820995773 9989.013592909989 405 1 1 405 405
91	1733680 12581 105 99141 10.866787572517 9991.081582127087 439 1 1 439 439
92	1746261 23108 108 99002 10.892116530237 9975.989240837011 524 0.099999999998545 0.10000000000036 52.399999999996 5.2399999999992
93	1769369 19681 110 99108 10.901820995773 9989.113592909989 447 0.099999999998545 0.10000000000036 44.700000000005 4.470000000001
94	1789050 21459 112 99144 10.992116530237 9991.181582127087 487 0.099999999998545 0.17535245365389 48.85773701118 4.9101214355087
95	1810509 1173 117 95569 11.266904626835 9628.031202011054 41 1 1 41 41
96	1811682 21014 120 99046 11.366904626835 9981.3914297979 477 0.099999999998545 0.10000000000036 47.699999999997 4.7699999999993
97	1832696 12443 129 99025 11.720069290216 9979.0764662856 434 1 1 434 434
98	1845139 21504 132 99028 11.820069290216 9979.1764662856 488 0.099999999998545 0.17972480500794 48.879724804998 4.9023010055331
99	1866643 13297 133 99101 12.220464220164 9988.773738948348 464 1 1 464 464
100	1879940 23203 136 99104 12.320464220164 9988.873738948348 515 0.099999999998545 0.15353138196497 51.553531381947 5.1635718852444
101	1903143 13212 149 99193 14.602554102703 9997.29731205588 445 1 1 445 445
102	1916355 22017 152 99196 14.702554102703 9997.39731205588 488 0.099999999998545 0.16063485678296 48.86063485679 4.895803557215
103	1938372 1390 157 96107 14.869793813563 9687.879747041163 47 1 1 47 47
104	1939762 24626 160 99040 14.969793813563 9980.986179092497 547 0.099999999998545 0.19007459859802 54.79007459859 5.4961283530306
105	1964388 13805 161 98877 15.289165049021 9965.361969969297 466 1 1 466 466
106	1978193 22809 164 98880 15.389165049021 9965.461969969297 506 0.099999999998545 0.19410418588905 50.703586638253 5.0896628423553
107	2001002 12396 165 98993 15.479195405514 9975.053289071569 418 1 1 418 418
108	2013398 21442 168 98996 15.579195405514 9975.153289071569 476 0.099999999998545 0.10000000000036 47.599999999998 4.7599999999997
109	2034840 12363 173 99085 16.360146227598 9987.092463379813 418 1 1 418 418
110	2047203 21021 176 99088 16.460146227598 9987.192463379813 467 0.099999999998545 0.16917866352651 46.769178663511 4.6886214201896
111	2068224 12951 181 99041 20.232092535774 9981.2914297979 436 1 1 436 436
112	2081175 12652 189 99133 22.157866916913 9990.421957350433 427 1 1 427 427
113	2093827 14367 191 99113 22.201606371005 9990.048077149955 485 1 1 485 485
114	2108194 21335 194 99136 22.257866916913 9990.521957350433 473 0.099999999998545 0.16750914042177 47.42007924556 4.7613369491076
115	2129529 24208 196 99120 22.301606371005 9990.148077149955 538 0.099999999998545 0.12349491508985 53.823494915103 5.3852509940557
116	2153737 13242 201 99189 23.117594212154 9996.727910120343 447 1 1 447 447
117	2166979 22370 204 99192 23.217594212154 9996.827910120343 497 0.099999999998545 0.10727375206443 49.707273752069 4.9715076578828
118	2189349 1719 209 96317 23.522428105387 9703.402660748009 58 1 1 58 58
119	2191068 13402 211 99149 23.574070050879 9992.829674654064 452 1 1 452 452
120	2204470 22729 216 99152 23.674070050879 9992.929674654064 505 0.099999999998545 0.19414448284169 50.708697153403 5.1058165283803
121	2227199 13737 241 99043 25.173544223505 9981.369724825493 463 1 1 463 463
122	2240936 22958 244 99048 25.273544223505 9981.469724825493 509 0.099999999998545 0.13318885893801 50.933188858938 5.0977392721451
123	2263894 14805 245 99037 25.359388990519 9980.886179092497 500 1 1 500 500
124	2278699 13833 249 98957 25.482504763199 9970.206964790308 467 1 1 467 467
125	2292532 23175 252 99092 25.582504763199 9987.649122327999 515 0.099999999998545 0.19162879391115 51.688476933477 5.2008943666809
126	2315707 14297 265 98997 26.356990913402 9975.889240837011 481 1 1 481 481
127	2330004 1423 269 98767 26.910220162014 9956.063792178738 48 1 1 48 48
128	2331427 13122 293 99153 30.136654979855 9994.074619234545 442 1 1 442 442
129	2344549 22409 296 99158 30.236654979855 9994.174619234545 497 0.099999999998545 0.199373728762 49.833450015969 5.007726334511
130	2366958 14663 313 99069 32.263353825185 9984.492289351598 494 1 1 494 494
131	2381621 24482 316 99072 32.363353825185 9984.592289351598 543 0.099999999998545 0.18497772053342 54.434822217158 5.4666701302616
132	2406103 13694 317 98999 32.466427183572 9975.955210665808 461 1 1 461 461
133	2419797 23505 320 99004 32.566427183572 9976.055210665808 521 0.099999999998545 0.11192778290069 52.118491618167 5.2138836795714
134	2443302 1655 337 97615 35.394815964888 9836.894134694685 56 1 1 56 56
135	2444957 12520 357 99185 37.456473337418 9996.501166250001 422 1 1 422 422
136	2457477 21426 360 99188 37.556473337418 9996.601166250001 476 0.099999999998545 0.10000000000036 47.600000000005 4.760000000001
137	2478903 13795 389 99073 40.052609541518 9986.462686226817 464 1 1 464 464
138	2492698 22917 392 99076 40.152609541518 9986.562686226817 507 0.099999999998545 0.18231808999644 50.851833048539 5.1111046512469
139	2515615 13462 407 98513 41.812338459188 9930.973934392158 454 1 1 454 454
140	2529077 22324 412 98628 41.912338459188 9941.776306480286 495 0.099999999998545 0.16285043491916 49.581692983487 4.9706438155037
141	2551401 13887 417 99175 42.093945925536 9996.099086575689 468 1 1 468 468
142	2565288 22829 422 99182 42.193945925536 9996.199086575689 507 0.099999999998545 0.13940859071499 50.739408590726 5.0794347551673
143	2588117 1659 433 98677 42.873672956469 9949.427426591918 56 1 1 56 56
144	2589776 1478 455 98413 46.986044818751 9920.79517692426 50 1 1 50 50
145	2591254 13127 473 98715 49.059329604428 9952.711255452232 443 1 1 443 443
146	2604381 22081 476 98722 49.159329604428 9952.811255452232 491 0.099999999998545 0.10000000000036 49.100000000005 4.9100000000009
147	2626462 1481 513 95951 52.559235858436 9670.676175934467 50 1 1 50 50
148	2627943 12764 523 98447 53.929556758937 9926.396825802517 430 1 1 430 430
149	2640707 21890 532 98452 54.029556758937 9926.496825802517 485 0.099999999998545 0.10000000000036 48.500000000001 4.8500000000002
150	2662597 11665 555 98985 54.833920313446 9974.511411404623 393 1 1 393 393
151	2674262 19709 560 98988 54.933920313446 9974.611411404623 437 0.099999999998545 0.12262744363943 43.723038652983 4.3751199008953
152	2693971 13435 567 99051 55.97957222567 9981.859425766796 452 1 1 452 452
153	2707406 22507 572 99056 56.07957222567 9981.959425766796 499 0.099999999998545 0.10000000000036 49.900000000008 4.9900000000016
154	2729913 12908 701 99093 69.004541745721 9987.896369777813 435 1 1 435 435
155	2742821 21475 704 99096 69.104541745721 9987.996369777813 476 0.099999999998545 0.18416600786622 47.720023787445 4.7923744547247
156	2764296 1300 777 99179 76.48175944776 9996.153595328499 44 1 1 44 44
157	2765596 1570 795 98169 78.087202048815 9896.373739273665 53 1 1 53 53
158	2767166 1416 865 97061 87.113780733888 9781.058525149993 48 1 1 48 48
159	2768582 1394 889 97985 89.072476468822 9875.754421626143 47 1 1 47 47
160	2769976 1594 913 96073 91.275694139813 9683.374632133258 54 1 1 54 54
161	2771570 1489 931 98887 92.855527880599 9966.19057993814 50 1 1 50 50
162	2773059 1719 937 98637 93.159224541946 9942.991037823968 58 1 1 58 58
163	2774778 1421 985 99089 97.662786637801 9987.549122327999 48 1 1 48 48
164	2776199 1336 1009 92033 101.121367671591 9253.541092176507 45 1 1 45 45
165	2777535 1786 1061 98921 107.427320187224 9967.568536978461 60 1 1 60 60
166	2779321 1420 1077 98251 108.957282757054 9903.104997070983 48 1 1 48 48
167	2780741 1158 1157 98173 115.869572979167 9896.51368619169 39 1 1 39 39
168	2781899 14123 1173 98843 117.454497219628 9963.033042025102 475 1 1 475 475
169	2796022 23279 1176 98848 117.554497219628 9963.133042025102 515 0.099999999998545 0.12459742341525 51.524597423396 5.1555245179178
170	2819301 1510 1217 98253 122.655067570639 9903.121187684261 51 1 1 51 51
171	2820811 1364 1329 97297 134.318640370958 9802.776145878103 46 1 1 46 46
172	2822175 13257 1377 98873 138.982285746732 9965.213926275248 446 1 1 446 446
173	2835432 22036 1380 99036 139.082285746732 9980.628682873144 488 0.099999999998545 0.17202736711988 48.87202736714 4.8995934150423
174	2857468 1246 1429 94517 143.251237979613 9508.844599419302 42 1 1 42 42
175	2858714 1297 1469 93917 146.889576185076 9447.218132017868 44 1 1 44 44
176	2860011 1248 1585 89245 162.659244337619 8982.376540513073 42 1 1 42 42
177	2861259 1516 1657 99137 170.845257125253 9990.750088811489 51 1 1 51 51
178	2862775 1244 2109 99031 209.834286428457 9980.456655506023 42 1 1 42 42
179	2864019 1225 2117 97681 210.150005382511 9840.750686390279 41 1 1 41 41
180	2865244 2201 2287 97673 224.617972481367 9840.417382993969 74 1 1 74 74
181	2867445 1406 2475 98181 240.616330458988 9896.838911229301 47 1 1 47 47