file 3141302 1767541384                                         
version 3
run Uniform-0-20260104-16:42:39-11527
attr configname Uniform
attr datetime 20260104-16:42:39
attr datetimef 20260104-164239
attr experiment Uniform
attr inifile omnetpp.ini
attr iterationvars ""
attr iterationvarsd ""
attr iterationvarsf ""
attr measurement ""
attr network progetto.DatabaseNetwork
attr processid 11527
attr repetition 0
attr replication #0
attr resultdir results
attr runnumber 0
attr seedset 0
config description "Tutte le tabelle hanno la stessa probabilità di essere scelte"
config *.user[*].tableDistribution "\"uniform\""
config network progetto.DatabaseNetwork
config sim-time-limit 1000s
config cpu-time-limit 300s
config *.numTables 20
config *.numUsers 60
config *.user[*].lambda 0.5
config *.user[*].serviceTime 0.5s
config *.user[*].readProbability 0.8

vector 0 DatabaseNetwork.user[0] AccessInterval ETV
vector 1 DatabaseNetwork.user[1] AccessInterval ETV
vector 2 DatabaseNetwork.user[2] AccessInterval ETV
vector 3 DatabaseNetwork.user[3] AccessInterval ETV
vector 4 DatabaseNetwork.user[4] AccessInterval ETV
vector 5 DatabaseNetwork.user[5] AccessInterval ETV
vector 6 DatabaseNetwork.user[6] AccessInterval ETV
vector 7 DatabaseNetwork.user[7] AccessInterval ETV
vector 8 DatabaseNetwork.user[8] AccessInterval ETV
vector 9 DatabaseNetwork.user[9] AccessInterval ETV
vector 10 DatabaseNetwork.user[10] AccessInterval ETV
vector 11 DatabaseNetwork.user[11] AccessInterval ETV
vector 12 DatabaseNetwork.user[12] AccessInterval ETV
vector 13 DatabaseNetwork.user[13] AccessInterval ETV
vector 14 DatabaseNetwork.user[14] AccessInterval ETV
vector 15 DatabaseNetwork.user[15] AccessInterval ETV
vector 16 DatabaseNetwork.user[16] AccessInterval ETV
vector 17 DatabaseNetwork.user[17] AccessInterval ETV
vector 18 DatabaseNetwork.user[18] AccessInterval ETV
vector 19 DatabaseNetwork.user[19] AccessInterval ETV
vector 20 DatabaseNetwork.user[20] AccessInterval ETV
vector 21 DatabaseNetwork.user[21] AccessInterval ETV
vector 22 DatabaseNetwork.user[22] AccessInterval ETV
vector 23 DatabaseNetwork.user[23] AccessInterval ETV
vector 24 DatabaseNetwork.user[24] AccessInterval ETV
vector 25 DatabaseNetwork.user[25] AccessInterval ETV
vector 26 DatabaseNetwork.user[26] AccessInterval ETV
vector 27 DatabaseNetwork.user[27] AccessInterval ETV
vector 28 DatabaseNetwork.user[28] AccessInterval ETV
vector 29 DatabaseNetwork.user[29] AccessInterval ETV
vector 30 DatabaseNetwork.user[30] AccessInterval ETV
vector 31 DatabaseNetwork.user[31] AccessInterval ETV
vector 32 DatabaseNetwork.user[32] AccessInterval ETV
vector 33 DatabaseNetwork.user[33] AccessInterval ETV
vector 34 DatabaseNetwork.user[34] AccessInterval ETV
vector 35 DatabaseNetwork.user[35] AccessInterval ETV
vector 36 DatabaseNetwork.user[36] AccessInterval ETV
vector 37 DatabaseNetwork.user[37] AccessInterval ETV
vector 38 DatabaseNetwork.user[38] AccessInterval ETV
vector 39 DatabaseNetwork.user[39] AccessInterval ETV
vector 40 DatabaseNetwork.user[40] AccessInterval ETV
vector 41 DatabaseNetwork.user[41] AccessInterval ETV
vector 42 DatabaseNetwork.user[42] AccessInterval ETV
vector 43 DatabaseNetwork.user[43] AccessInterval ETV
vector 44 DatabaseNetwork.user[44] AccessInterval ETV
vector 45 DatabaseNetwork.user[45] AccessInterval ETV
vector 46 DatabaseNetwork.user[46] AccessInterval ETV
vector 47 DatabaseNetwork.user[47] AccessInterval ETV
vector 48 DatabaseNetwork.user[48] AccessInterval ETV
vector 49 DatabaseNetwork.user[49] AccessInterval ETV
vector 50 DatabaseNetwork.user[50] AccessInterval ETV
vector 51 DatabaseNetwork.user[51] AccessInterval ETV
vector 52 DatabaseNetwork.user[52] AccessInterval ETV
vector 53 DatabaseNetwork.user[53] AccessInterval ETV
vector 54 DatabaseNetwork.user[54] AccessInterval ETV
vector 55 DatabaseNetwork.user[55] AccessInterval ETV
vector 56 DatabaseNetwork.user[56] AccessInterval ETV
vector 57 DatabaseNetwork.user[57] AccessInterval ETV
vector 58 DatabaseNetwork.user[58] AccessInterval ETV
vector 59 DatabaseNetwork.user[59] AccessInterval ETV
vector 60 DatabaseNetwork.user[32] ReadAccesses ETV
vector 61 DatabaseNetwork.user[15] ReadAccesses ETV
vector 62 DatabaseNetwork.user[28] ReadAccesses ETV
vector 63 DatabaseNetwork.user[30] ReadAccesses ETV
vector 64 DatabaseNetwork.user[57] WriteAccesses ETV
vector 65 DatabaseNetwork.user[48] ReadAccesses ETV
vector 66 DatabaseNetwork.user[37] ReadAccesses ETV
vector 67 DatabaseNetwork.user[52] WriteAccesses ETV
vector 68 DatabaseNetwork.user[32] WaitTime ETV
vector 69 DatabaseNetwork.user[15] WaitTime ETV
vector 70 DatabaseNetwork.user[17] ReadAccesses ETV
vector 71 DatabaseNetwork.user[28] WaitTime ETV
vector 72 DatabaseNetwork.user[30] WaitTime ETV
vector 73 DatabaseNetwork.user[13] WriteAccesses ETV
vector 74 DatabaseNetwork.user[57] WaitTime ETV
vector 75 DatabaseNetwork.user[48] WaitTime ETV
vector 76 DatabaseNetwork.user[37] WriteAccesses ETV
vector 77 DatabaseNetwork.user[37] WaitTime ETV
vector 78 DatabaseNetwork.user[29] ReadAccesses ETV
vector 79 DatabaseNetwork.user[33] ReadAccesses ETV
vector 80 DatabaseNetwork.user[18] ReadAccesses ETV
vector 81 DatabaseNetwork.user[11] WriteAccesses ETV
vector 82 DatabaseNetwork.user[25] ReadAccesses ETV
vector 83 DatabaseNetwork.user[58] WriteAccesses ETV
vector 84 DatabaseNetwork.user[8] WriteAccesses ETV
vector 85 DatabaseNetwork.user[17] WaitTime ETV
vector 86 DatabaseNetwork.user[12] ReadAccesses ETV
vector 87 DatabaseNetwork.user[13] WaitTime ETV
vector 88 DatabaseNetwork.user[44] WriteAccesses ETV
vector 89 DatabaseNetwork.user[52] WaitTime ETV
vector 90 DatabaseNetwork.user[59] WriteAccesses ETV
vector 91 DatabaseNetwork.user[41] ReadAccesses ETV
vector 92 DatabaseNetwork.user[19] WriteAccesses ETV
vector 93 DatabaseNetwork.user[23] WriteAccesses ETV
vector 94 DatabaseNetwork.user[29] WaitTime ETV
vector 95 DatabaseNetwork.user[44] ReadAccesses ETV
vector 96 DatabaseNetwork.user[33] WaitTime ETV
vector 97 DatabaseNetwork.user[18] WaitTime ETV
vector 98 DatabaseNetwork.user[45] ReadAccesses ETV
vector 99 DatabaseNetwork.user[56] WriteAccesses ETV
vector 100 DatabaseNetwork.user[25] WaitTime ETV
vector 101 DatabaseNetwork.user[22] ReadAccesses ETV
vector 102 DatabaseNetwork.user[53] ReadAccesses ETV
vector 103 DatabaseNetwork.user[58] WaitTime ETV
vector 104 DatabaseNetwork.user[6] ReadAccesses ETV
vector 105 DatabaseNetwork.user[0] ReadAccesses ETV
vector 106 DatabaseNetwork.user[8] WaitTime ETV
vector 107 DatabaseNetwork.user[12] WaitTime ETV
vector 108 DatabaseNetwork.user[24] ReadAccesses ETV
vector 109 DatabaseNetwork.user[51] ReadAccesses ETV
vector 110 DatabaseNetwork.user[11] WaitTime ETV
vector 111 DatabaseNetwork.user[41] WaitTime ETV
vector 112 DatabaseNetwork.user[1] WriteAccesses ETV
vector 113 DatabaseNetwork.user[23] WaitTime ETV
vector 114 DatabaseNetwork.user[4] ReadAccesses ETV
vector 115 DatabaseNetwork.user[44] WaitTime ETV
vector 116 DatabaseNetwork.user[11] ReadAccesses ETV
vector 117 DatabaseNetwork.user[59] ReadAccesses ETV
vector 118 DatabaseNetwork.user[9] WriteAccesses ETV
vector 119 DatabaseNetwork.user[23] ReadAccesses ETV
vector 120 DatabaseNetwork.user[56] WaitTime ETV
vector 121 DatabaseNetwork.user[22] WaitTime ETV
vector 122 DatabaseNetwork.user[53] WaitTime ETV
vector 123 DatabaseNetwork.user[50] ReadAccesses ETV
vector 124 DatabaseNetwork.user[6] WaitTime ETV
vector 125 DatabaseNetwork.user[10] ReadAccesses ETV
vector 126 DatabaseNetwork.user[31] ReadAccesses ETV
vector 127 DatabaseNetwork.user[0] WaitTime ETV
vector 128 DatabaseNetwork.user[45] WaitTime ETV
vector 129 DatabaseNetwork.user[56] ReadAccesses ETV
vector 130 DatabaseNetwork.user[24] WaitTime ETV
vector 131 DatabaseNetwork.user[51] WaitTime ETV
vector 132 DatabaseNetwork.user[47] ReadAccesses ETV
vector 133 DatabaseNetwork.user[28] WriteAccesses ETV
vector 134 DatabaseNetwork.user[4] WaitTime ETV
vector 135 DatabaseNetwork.user[59] WaitTime ETV
vector 136 DatabaseNetwork.user[9] WaitTime ETV
vector 137 DatabaseNetwork.user[52] ReadAccesses ETV
vector 138 DatabaseNetwork.user[2] ReadAccesses ETV
vector 139 DatabaseNetwork.user[9] ReadAccesses ETV
vector 140 DatabaseNetwork.user[50] WaitTime ETV
vector 141 DatabaseNetwork.user[49] WriteAccesses ETV
vector 142 DatabaseNetwork.user[10] WaitTime ETV
vector 143 DatabaseNetwork.user[31] WaitTime ETV
vector 144 DatabaseNetwork.user[48] WriteAccesses ETV
vector 145 DatabaseNetwork.user[19] WaitTime ETV
vector 146 DatabaseNetwork.user[55] WriteAccesses ETV
vector 147 DatabaseNetwork.user[47] WaitTime ETV
vector 148 DatabaseNetwork.user[36] ReadAccesses ETV
vector 149 DatabaseNetwork.user[2] WaitTime ETV
vector 150 DatabaseNetwork.user[19] ReadAccesses ETV
vector 151 DatabaseNetwork.user[46] WriteAccesses ETV
vector 152 DatabaseNetwork.user[20] ReadAccesses ETV
vector 153 DatabaseNetwork.user[33] WriteAccesses ETV
vector 154 DatabaseNetwork.user[42] ReadAccesses ETV
vector 155 DatabaseNetwork.user[43] ReadAccesses ETV
vector 156 DatabaseNetwork.user[21] ReadAccesses ETV
vector 157 DatabaseNetwork.user[36] WaitTime ETV
vector 158 DatabaseNetwork.user[49] WaitTime ETV
vector 159 DatabaseNetwork.user[34] ReadAccesses ETV
vector 160 DatabaseNetwork.user[27] WriteAccesses ETV
vector 161 DatabaseNetwork.user[46] ReadAccesses ETV
vector 162 DatabaseNetwork.user[47] WriteAccesses ETV
vector 163 DatabaseNetwork.user[42] WriteAccesses ETV
vector 164 DatabaseNetwork.user[42] WaitTime ETV
vector 165 DatabaseNetwork.user[3] ReadAccesses ETV
vector 166 DatabaseNetwork.user[43] WaitTime ETV
vector 167 DatabaseNetwork.user[55] WaitTime ETV
vector 168 DatabaseNetwork.user[7] ReadAccesses ETV
vector 169 DatabaseNetwork.user[1] WaitTime ETV
vector 170 DatabaseNetwork.user[20] WaitTime ETV
vector 171 DatabaseNetwork.user[58] ReadAccesses ETV
vector 172 DatabaseNetwork.user[5] ReadAccesses ETV
vector 173 DatabaseNetwork.user[46] WaitTime ETV
vector 174 DatabaseNetwork.user[1] ReadAccesses ETV
vector 175 DatabaseNetwork.user[38] ReadAccesses ETV
vector 176 DatabaseNetwork.user[39] ReadAccesses ETV
vector 177 DatabaseNetwork.user[21] WaitTime ETV
vector 178 DatabaseNetwork.user[50] WriteAccesses ETV
vector 179 DatabaseNetwork.user[34] WaitTime ETV
vector 180 DatabaseNetwork.user[31] WriteAccesses ETV
vector 181 DatabaseNetwork.user[5] WaitTime ETV
vector 182 DatabaseNetwork.user[14] ReadAccesses ETV
vector 183 DatabaseNetwork.user[38] WaitTime ETV
vector 184 DatabaseNetwork.user[7] WaitTime ETV
vector 185 DatabaseNetwork.user[27] WaitTime ETV
vector 186 DatabaseNetwork.user[3] WaitTime ETV
vector 187 DatabaseNetwork.user[3] WriteAccesses ETV
vector 188 DatabaseNetwork.user[57] ReadAccesses ETV
vector 189 DatabaseNetwork.user[14] WaitTime ETV
vector 190 DatabaseNetwork.user[26] ReadAccesses ETV
vector 191 DatabaseNetwork.user[39] WaitTime ETV
vector 192 DatabaseNetwork.user[36] WriteAccesses ETV
vector 193 DatabaseNetwork.user[10] WriteAccesses ETV
vector 194 DatabaseNetwork.user[32] WriteAccesses ETV
vector 195 DatabaseNetwork.user[54] ReadAccesses ETV
vector 196 DatabaseNetwork.user[49] ReadAccesses ETV
vector 197 DatabaseNetwork.user[27] ReadAccesses ETV
vector 198 DatabaseNetwork.user[26] WaitTime ETV
vector 199 DatabaseNetwork.user[5] WriteAccesses ETV
vector 200 DatabaseNetwork.user[54] WaitTime ETV
vector 201 DatabaseNetwork.user[35] WriteAccesses ETV
vector 202 DatabaseNetwork.user[35] ReadAccesses ETV
vector 203 DatabaseNetwork.user[16] ReadAccesses ETV
vector 204 DatabaseNetwork.user[4] WriteAccesses ETV
vector 205 DatabaseNetwork.user[35] WaitTime ETV
vector 206 DatabaseNetwork.user[13] ReadAccesses ETV
vector 207 DatabaseNetwork.user[16] WaitTime ETV
vector 208 DatabaseNetwork.user[2] WriteAccesses ETV
vector 209 DatabaseNetwork.user[53] WriteAccesses ETV
vector 210 DatabaseNetwork.user[55] ReadAccesses ETV
vector 211 DatabaseNetwork.user[43] WriteAccesses ETV
vector 212 DatabaseNetwork.user[40] ReadAccesses ETV
vector 213 DatabaseNetwork.user[45] WriteAccesses ETV
vector 214 DatabaseNetwork.user[40] WaitTime ETV
vector 215 DatabaseNetwork.user[34] WriteAccesses ETV
vector 216 DatabaseNetwork.user[8] ReadAccesses ETV
vector 217 DatabaseNetwork.user[20] WriteAccesses ETV
vector 218 DatabaseNetwork.user[17] WriteAccesses ETV
vector 219 DatabaseNetwork.user[24] WriteAccesses ETV
vector 220 DatabaseNetwork.user[18] WriteAccesses ETV
vector 221 DatabaseNetwork.user[21] WriteAccesses ETV
vector 222 DatabaseNetwork.user[12] WriteAccesses ETV
vector 223 DatabaseNetwork.user[6] WriteAccesses ETV
vector 224 DatabaseNetwork.user[22] WriteAccesses ETV
vector 225 DatabaseNetwork.user[14] WriteAccesses ETV
vector 226 DatabaseNetwork.user[39] WriteAccesses ETV
vector 227 DatabaseNetwork.user[40] WriteAccesses ETV
vector 228 DatabaseNetwork.user[25] WriteAccesses ETV
vector 229 DatabaseNetwork.user[38] WriteAccesses ETV
vector 230 DatabaseNetwork.user[0] WriteAccesses ETV
vector 231 DatabaseNetwork.user[16] WriteAccesses ETV
vector 232 DatabaseNetwork.user[7] WriteAccesses ETV
vector 233 DatabaseNetwork.user[29] WriteAccesses ETV
vector 234 DatabaseNetwork.user[26] WriteAccesses ETV
vector 235 DatabaseNetwork.user[15] WriteAccesses ETV
vector 236 DatabaseNetwork.user[41] WriteAccesses ETV
vector 237 DatabaseNetwork.user[30] WriteAccesses ETV
vector 238 DatabaseNetwork.user[51] WriteAccesses ETV
vector 239 DatabaseNetwork.user[54] WriteAccesses ETV
0	13305 20418 0 119643 0 999.541397732656 496 0.0024087297094687 14.401069737261 1000.1350609666 4035.3923026144
1	33723 20954 0 119557 0 998.936355941827 510 0.003642302007998 14.360777491916 1002.3169749584 3833.9598086685
2	54677 21472 0 119519 0 998.639092622693 522 0.0043612164345251 24.341944211079 1000.9564194395 4172.7341997814
3	76149 22071 0 119297 0 996.84228105415 536 4.0060310428949e-05 12.820602593013 1000.5886167402 3681.2098496928
4	98220 21060 0 119631 0 999.487701931257 512 0.0010903305967085 15.982075323883 1000.0227238128 4000.8946002452
5	119280 21290 0 119181 0 995.780094296239 517 0.0030787140644357 16.208288547616 1001.8690510188 4062.6912000826
6	140570 20317 0 119255 0 996.385362022503 494 8.0219630844018e-06 14.578036621451 1000.7367381211 4013.5553936352
7	160887 20861 0 119641 0 999.53927219953 506 0.00028012885128166 12.801422285641 1003.3739964106 3796.8415698471
8	181748 21196 0 119685 0 999.913380956284 515 0.005833754507004 13.551779055631 1002.3463719218 4152.7411664794
9	202944 20533 0 119325 0 997.008517399596 498 0.0033739633410456 14.833836937771 1000.4677936772 4216.9038833584
10	223477 20130 0 119601 0 999.168715655449 478 0.0077974107890168 16.169863132999 1009.6443975036 4443.7866704166
11	243607 20580 0 119317 0 996.974212169478 489 0.0071958073765038 12.703509992544 1000.7005924736 3951.6986072467
12	264187 22081 0 119535 0 998.730965094127 523 0.0043766215286945 13.532836583988 1000.4218511507 3844.8170579488
13	286268 21301 0 119581 0 999.086482146219 505 0.011298034031103 19.452080564538 1002.068091735 4209.7702248202
14	307569 21497 0 119487 0 998.329586057057 510 0.0013835790987459 17.457607665941 1000.9572277749 4317.4703958889
15	329066 19819 0 119477 0 998.28678519332 470 9.2572346664555e-05 28.562370611772 1000.1571249825 4820.1967742207
16	348885 20227 0 119571 0 999.026778689632 479 0.0042487334426532 21.444649959218 1006.1481931635 4553.2624830482
17	369112 22572 0 119469 0 998.197969596254 536 0.0042365389408942 9.2556787754892 1006.4432098554 3398.3122053661
18	391684 22091 0 119523 0 998.661138688384 524 0.008969342939259 11.078159959308 1000.7831554809 3748.9406687933
19	413775 20053 0 118659 0 991.82073227592 476 0.0044378440671203 13.340012538787 1004.041767045 4357.4153191822
20	433828 22975 0 119639 0 999.503385591832 545 0.0084427564593565 19.830021311223 1000.4467957901 3748.5436518353
21	456803 20957 0 119673 0 999.813681855234 497 0.0082397381425155 11.79129436911 1000.1736035151 3805.6343765525
22	477760 22028 0 119625 0 999.432161241685 522 0.012816555114231 12.550620882393 1000.2451662233 3790.4594471754
23	499788 23033 0 119357 0 997.33576659312 546 0.006332793324088 12.143181392146 1002.5712923713 3613.8602268682
24	522821 20654 0 119233 0 996.28984637779 490 0.0045707816217883 18.350137997266 1001.6632350073 4241.5026289908
25	543475 20759 0 119421 0 997.820340191254 492 0.0019137960507441 11.754405031943 1000.4120465561 4117.7285751459
26	564234 19676 0 119195 0 995.877417046813 467 0.0040639442231066 14.911005162809 1001.1578161997 4241.424245128
27	583910 22104 0 119313 0 996.919414147143 524 0.0030876172528391 9.7051699587215 1000.1177234559 3658.154415149
28	606014 19150 0 119375 0 997.425999453388 455 0.0036209359595683 17.46172314558 1002.3179827187 4366.7813023182
29	625164 20435 0 118641 0 991.690562280911 485 0.0017173243165545 14.832600718363 1000.8792046406 4340.7572948663
30	645599 21206 0 119065 0 994.848878270245 503 0.0035479194452088 12.213338309208 1002.460190232 4090.0001605979
31	666805 20564 0 119493 0 998.364663212263 488 0.0035474277668279 18.367130023346 1001.8608193826 4430.3720203225
32	687369 22402 0 119337 0 997.11994917249 532 0.0058778703159042 15.146342846019 1000.5357791502 4090.2380716589
33	709771 19791 0 119683 0 999.89270260301 470 0.012207768916721 12.660905054413 1002.2671178222 4065.371374988
34	729562 19494 0 119579 0 999.081636497161 463 0.014585688248228 12.292017776319 1000.0067629324 4105.1567298839
35	749056 21789 0 119377 0 997.427827745146 517 0.0057324614996326 11.328972541543 1001.0739771283 3815.6471217268
36	770845 21612 0 119051 0 994.688224097237 512 0.0029059072502641 12.256397910572 1000.5059320223 3933.7153217229
37	792457 21233 0 119553 0 998.914324847991 505 0.0012667539140039 12.341804291598 1001.8863717834 3790.927440298
38	813690 21402 0 119633 0 999.490385158091 507 0.0025953155093071 11.321339886743 1001.0080192153 3913.6549267067
39	835092 20033 0 119575 0 999.057812510257 476 0.0035445551359708 14.04649420935 1001.5198482523 3962.6525784866
40	855125 20639 0 119287 0 996.778788794497 490 0.0016150330009432 10.210640005238 1001.9466964301 3735.5291769501
41	875764 21031 0 119647 0 999.57591779164 499 0.013054442113953 12.854348439988 1001.7127653696 3925.4785601666
42	896795 20970 0 119679 0 999.841781604387 497 0.0018322723193423 16.912318948833 1000.0547300052 4045.6448632239
43	917765 20609 0 119593 0 999.143445152533 489 0.010635599106745 12.442489018041 1000.3693358105 3893.9166832798
44	938374 21723 0 119681 0 999.85898667538 515 0.00033290940215248 9.7134876081232 1000.9102169762 3719.5705507686
45	960097 19969 0 119587 0 999.117481910073 474 0.00080906897054133 17.179665261115 1000.6177737176 4101.3893605123
46	980066 21219 0 119497 0 998.391931556252 504 0.00011070379028486 14.281894274484 1006.3602227232 4069.8849012081
47	1001285 20613 0 119451 0 998.05201942506 490 4.8418184084518e-05 13.33023782798 1000.9851675308 3986.2743181838
48	1021898 20834 0 119407 0 997.634883411029 495 0.0047484359703316 15.752358849105 1000.5073538654 3886.6559782639
49	1042732 21111 0 119675 0 999.823753529169 501 0.0058703669962988 17.821895212618 1000.9047293141 4115.6067273239
50	1063843 21906 0 119603 0 999.200360843623 520 0.0071860423371158 16.471131579045 1001.0909181575 4056.4983091872
51	1085749 20378 0 119617 0 999.370164677146 483 0.0031406044027415 16.765305297558 1000.5643640056 4374.0894891036
52	1106127 20921 0 119521 0 998.650718098905 496 0.013345142618726 15.332647952234 1002.2225846206 4086.7029274469
53	1127048 20746 0 119429 0 997.84769432417 492 0.00052135573475197 13.083512369481 1002.0060467619 4037.7991230197
54	1147794 20834 0 119663 0 999.70901638071 494 0.0032654957791945 17.048887033836 1000.4701901608 4242.9258192545
55	1168628 21278 0 118893 0 993.406647101669 505 0.00037346262254305 15.79275382639 1002.7214528493 3976.5832901378
56	1189906 21411 0 118925 0 993.685606100277 508 0.0020448281734443 12.966180984665 1000.5697766606 3805.0291898198
57	1211317 20251 0 119609 0 999.264897340641 481 0.0055926430144227 18.835988661658 1001.8590056289 4242.5188632909
58	1231568 19796 0 119615 0 999.339558480737 469 0.00075889479196272 11.256167343345 1000.7368523579 4243.1750712158
59	1251364 21041 0 119559 0 998.962956748585 499 0.0035115150463922 19.16704229798 1001.3313722605 4118.595230566
60	1272405 11760 1 119187 0.040851176798 995.834678131495 423 1 1 423 423
61	1284165 10452 3 119477 0.116769338186 998.28678519332 375 1 1 375 375
62	1294617 9810 5 118937 0.14737071093 993.787439478066 353 1 1 353 353
63	1304427 11389 7 119017 0.182322052249 994.385289101873 409 1 1 409 409
64	1315816 2805 11 117753 0.223892321265 983.978668424453 101 1 1 101 101
65	1318621 10774 13 119407 0.251748818876 997.634883411029 387 1 1 387 387
66	1329395 11548 15 119553 0.30246170733 998.914324847991 416 1 1 416 416
67	1340943 2597 17 118257 0.309459361 988.220218144334 93 1 1 93 93
68	1343540 17523 24 119406 0.540851176798 997.61994917249 531 0.5 1.778693360156 323.61563949671 226.42764707933
69	1361063 15644 28 119600 0.616769338186 999.163730802817 469 0.5 2.435652838857 292.37157797975 214.73348327316
70	1376707 12188 29 119469 0.636712281684 998.197969596254 439 1 1 439 439
71	1388895 15020 32 119454 0.64737071093 998.091927656932 454 0.5 2.5113492494301 280.29774091694 203.39494135504
72	1403915 16398 34 119132 0.682322052249 995.348878270245 502 0.5 2.4944829592939 299.8118742918 207.39280165181
73	1420313 3227 37 117467 0.706318278275 980.831216767274 116 1 1 116 116
74	1423540 15851 42 119666 0.723892321265 999.764897340641 480 0.5 2.101494144421 294.76698757674 212.57044296427
75	1439391 16306 44 119474 0.751748818876 998.241925781363 494 0.5 1.976359226609 299.41622522272 209.27152197178
76	1455697 2445 45 118857 0.787641535737 993.165227486903 88 1 1 88 88
77	1458142 16447 48 119622 0.80246170733 999.414324847991 504 0.5 2.32715262373 298.17486194098 200.43822493611
78	1474589 10418 49 118641 0.823155992485 991.690562280911 374 1 1 374 374
79	1485007 10434 53 119683 0.91849627451 999.89270260301 375 1 1 375 375
80	1495441 11636 55 119523 0.967204209897 998.661138688384 418 1 1 418 418
81	1507077 2265 57 119317 0.970256327443 996.974212169478 82 1 1 82 82
82	1509342 10721 59 119421 0.997744018032 997.820340191254 384 1 1 384 384
83	1520063 2470 65 119369 1.071131440456 997.400391267363 89 1 1 89 89
84	1522533 3397 67 119685 1.102096973341 999.913380956284 122 1 1 122 122
85	1525930 17667 72 119532 1.136712281684 998.697969596254 535 0.5 2.370550932864 326.15950649164 230.77968313923
86	1543597 11781 75 119535 1.151038393766 998.730965094127 423 1 1 423 423
87	1555378 16735 82 119655 1.206318278275 999.600684979883 504 0.49999999999994 2.0988289831971 316.82015751324 234.31420241506
88	1572113 2873 87 116179 1.237858919253 970.356865688719 103 1 1 103 103
89	1574986 16313 90 119596 1.251748818876 999.150718098905 495 0.49999999999994 2.0754232725719 297.38171652978 207.01517130623
90	1591299 2676 93 119559 1.283389404062 998.962956748585 96 1 1 96 96
91	1593975 11390 95 119647 1.283418345356 999.57591779164 409 1 1 409 409
92	1605365 2190 99 117573 1.298892696502 981.994285639503 79 1 1 79 79
93	1607555 2454 101 117205 1.307765134442 978.288238016865 88 1 1 88 88
94	1610009 16211 104 118812 1.323155992485 992.904514846502 484 0.49999999999994 2.224730572135 296.90872035611 208.05565360608
95	1626220 11444 105 119681 1.370453722217 999.85898667538 411 1 1 411 411
96	1637664 15419 108 119584 1.41849627451 999.093320343104 467 0.5 2.813370940652 280.0530889589 193.74825308267
97	1653083 17424 110 119598 1.467204209897 999.161138688384 523 0.5 1.705306498686 324.13441286465 231.8966858393
98	1670507 10497 111 119587 1.46992884238 999.117481910073 377 1 1 377 377
99	1681004 3195 113 118605 1.475654583512 991.404514846502 115 1 1 115 115
100	1684199 16622 116 119486 1.497744018032 998.320340191254 491 0.5 1.446780982712 291.96181962588 194.77916269277
101	1700821 11584 117 119625 1.505348226626 999.432161241685 401 1 1 401 401
102	1712405 11296 119 119429 1.541669316935 997.84769432417 392 1 1 392 392
103	1723701 16052 122 119678 1.571131440456 999.839558480737 468 0.49999999999997 2.280094548835 290.41931881205 210.95707788364
104	1739753 11508 123 119255 1.574402279964 996.385362022503 399 1 1 399 399
105	1751261 11812 129 119643 1.591749009132 999.541397732656 410 1 1 410 410
106	1763073 17346 132 119562 1.602096973341 998.983755565507 512 0.5 1.83171412366 302.349190656 199.31205234805
107	1780419 17832 134 119608 1.651038393766 999.230965094127 522 0.5 2.954312815093 323.89315187002 239.69042620311
108	1798251 10681 135 119159 1.6788657058 995.674052279614 370 1 1 370 370
109	1808932 11739 139 119617 1.744642390084 999.370164677146 407 1 1 407 407
110	1820671 16478 142 119384 1.751748818876 997.474212169478 488 0.5 2.397357292813 293.38566576545 206.037284193
111	1837149 16896 144 119656 1.783418345356 999.600684979883 497 0.5 2.2638448082261 302.26109409928 215.56796312234
112	1854045 3390 149 119301 1.797120776968 996.869253095989 118 1 1 118 118
113	1857435 18356 152 119473 1.807765134442 998.241925781363 545 0.5 2.1319820668699 322.16519987279 218.18504799177
114	1875791 11669 153 119631 1.846446262942 999.487701931257 405 1 1 405 405
115	1887460 17508 156 119698 1.870453722217 999.997433089406 513 0.49999999999999 2.312436123114 308.30185250052 209.55719852742
116	1904968 11701 157 118063 1.890284242924 986.411384644918 406 1 1 406 406
117	1916669 11591 159 119507 1.900219084258 998.491136346103 402 1 1 402 402
118	1928260 2789 161 118779 1.954012852787 992.686539469 97 1 1 97 97
119	1931049 13189 163 119357 1.9584459655 997.33576659312 457 1 1 457 457
120	1944238 17332 166 118994 1.975654583512 994.185606100277 507 0.5 1.629138081678 312.19985596412 219.28376277808
121	1961570 17705 170 119688 2.005348226626 999.932161241685 521 0.5 3.1974399780889 322.25333556451 241.12230259946
122	1979275 16829 172 119492 2.041669316935 998.34769432417 491 0.49999999999989 2.318963453373 299.55475017945 210.2756004274
123	1996104 11647 173 119603 2.042863748698 999.200360843623 404 1 1 404 404
124	2007751 16865 176 119328 2.074402279964 997.047622566285 493 0.5 2.447132045585 301.0440228633 209.26524907173
125	2024616 11397 177 119601 2.076318601328 999.168715655449 395 1 1 395 395
126	2036013 11168 181 119493 2.089225016616 998.364663212263 387 1 1 387 387
127	2047181 16682 184 119542 2.091749009132 998.796459830311 493 0.49999999999994 2.593729432312 296.70467712936 208.08448316703
128	2063863 16325 190 119671 2.102096973341 999.804727083736 473 0.5 2.7472113399859 297.22701414866 221.84784080661
129	2080188 11311 197 118925 2.158962917564 993.685606100277 392 1 1 392 392
130	2091499 16664 200 119296 2.1788657058 996.834678131495 489 0.5 2.131566999615 294.51187095934 201.62521100822
131	2108163 16375 204 119696 2.244642390084 999.991136346103 482 0.5 2.038159159871 289.30622878402 199.83815389961
132	2124538 11319 209 119387 2.27187788342 997.4786974484 392 1 1 392 392
133	2135857 2917 213 119375 2.321498001058 997.425999453388 101 1 1 101 101
134	2138774 17379 216 119462 2.346446262942 998.146018879036 510 0.5 1.6508960350191 308.16730572457 211.09529319997
135	2156153 16847 218 119652 2.400219084258 999.593320343104 498 0.5 2.004252131675 293.91756131982 195.73906791262
136	2173000 17012 220 119396 2.454012852787 997.508517399596 497 0.49999999999994 2.960146263725 318.39167715329 253.77293122858
137	2190012 11612 229 119521 2.507284296102 998.650718098905 402 1 1 402 402
138	2201624 12246 231 119519 2.511861516095 998.639092622693 425 1 1 425 425
139	2213870 11573 235 119325 2.528833804927 997.008517399596 400 1 1 400 400
140	2225443 17765 238 119695 2.542863748698 999.991136346103 519 0.5 2.606359155342 312.96373116519 216.94098918127
141	2243208 2781 239 118367 2.550455404447 989.188784846069 97 1 1 97 97
142	2245989 16096 244 119672 2.576318601328 999.804727083736 477 0.5 1.751894605749 281.87929605528 186.15690084264
143	2262085 16396 248 119550 2.589225016616 998.864663212263 487 0.5 1.883109351413 289.14272895769 194.87676202255
144	2278481 3088 251 115635 2.635526566748 965.969624552165 107 1 1 107 107
145	2281569 16144 258 118716 2.751748818876 992.32073227592 475 0.5 1.945996709886 285.4129200125 194.11595261629
146	2297713 3215 265 118067 2.842729360187 986.445425041555 112 1 1 112 112
147	2300928 16669 278 119512 2.976519113125 998.55201942506 489 0.5 2.528969583036 302.23723568006 221.29747055671
148	2317597 11610 287 119051 3.011568517275 994.688224097237 402 1 1 402 402
149	2329207 17672 290 119592 3.011861516095 999.139092622693 521 0.5 2.038037132598 319.22523259054 228.1007805083
150	2346879 11428 291 118659 3.01468397865 991.82073227592 396 1 1 396 396
151	2358307 2512 301 118635 3.03307194798 991.654874794674 87 1 1 87 87
152	2360819 12353 307 119505 3.137792235246 998.489404839328 428 1 1 428 428
153	2373172 2721 309 118227 3.164832877577 987.934362515365 94 1 1 94 94
154	2375893 11812 313 119679 3.210479114123 999.841781604387 409 1 1 409 409
155	2387705 11467 315 119593 3.228004149785 999.143445152533 397 1 1 397 397
156	2399172 11804 327 119673 3.34442240065 999.813681855234 409 1 1 409 409
157	2410976 17718 350 119108 3.511568517275 995.188224097237 511 0.5 2.246977431899 311.22925433655 215.27874516136
158	2428694 17095 356 119152 3.528833804927 995.588331426497 499 0.5 1.693293753844 312.4674600367 225.79579841176
159	2445789 10822 363 119579 3.574975326877 999.081636497161 375 1 1 375 375
160	2456611 3047 365 118225 3.61673852855 987.929351294728 106 1 1 106 106
161	2459658 12005 369 119497 3.65500755792 998.391931556252 416 1 1 416 416
162	2471663 2772 373 119451 3.664666109773 998.05201942506 97 1 1 97 97
163	2474435 2513 381 119091 3.704197651721 995.070226490761 87 1 1 87 87
164	2476948 16784 384 119570 3.710479114123 999.02472649143 495 0.5 2.3764817756349 302.41016739306 215.66952630936
165	2493732 12455 385 119297 3.719208424149 996.84228105415 432 1 1 432 432