file 4407204 1767629704                                         
version 3
run Uniform-29-20260105-17:15:04-28078
attr configname Uniform
attr datetime 20260105-17:15:04
attr datetimef 20260105-171504
attr experiment Uniform
attr inifile omnetpp.ini
attr iterationvars "$N=75, $p=0.3"
attr iterationvarsd N=75/p=0.3
attr iterationvarsf N=75,p=0.3-
attr measurement "$N=75, $p=0.3"
attr network progetto.DatabaseNetwork
attr processid 28078
attr repetition 4
attr replication #4
attr resultdir results
attr runnumber 29
attr seedset 4
itervar N 75
itervar p 0.3
config description "Uniform distribution - varia N e p"
config *.user[*].tableDistribution "\"uniform\""
config *.numUsers 75
config *.user[*].readProbability 0.3
config network progetto.DatabaseNetwork
config sim-time-limit 10000s
config cpu-time-limit 3600s
config repeat 5
config seed-set 4
config output-vector-file "results/Uniform-$N=75, $p=0.3-4.vec"
config output-scalar-file "results/Uniform-$N=75, $p=0.3-4.sca"
config result-dir results
config **.vector-recording true
config **.scalar-recording true
config *.numTables 20
config *.user[*].lambda 0.05
config *.user[*].serviceTime 0.1s

vector 0 DatabaseNetwork.user[0] AccessInterval ETV
vector 1 DatabaseNetwork.user[1] AccessInterval ETV
vector 2 DatabaseNetwork.user[2] AccessInterval ETV
vector 3 DatabaseNetwork.user[3] AccessInterval ETV
vector 4 DatabaseNetwork.user[4] AccessInterval ETV
vector 5 DatabaseNetwork.user[5] AccessInterval ETV
vector 6 DatabaseNetwork.user[6] AccessInterval ETV
vector 7 DatabaseNetwork.user[7] AccessInterval ETV
vector 8 DatabaseNetwork.user[8] AccessInterval ETV
vector 9 DatabaseNetwork.user[9] AccessInterval ETV
vector 10 DatabaseNetwork.user[10] AccessInterval ETV
vector 11 DatabaseNetwork.user[11] AccessInterval ETV
vector 12 DatabaseNetwork.user[12] AccessInterval ETV
vector 13 DatabaseNetwork.user[13] AccessInterval ETV
vector 14 DatabaseNetwork.user[14] AccessInterval ETV
vector 15 DatabaseNetwork.user[15] AccessInterval ETV
vector 16 DatabaseNetwork.user[16] AccessInterval ETV
vector 17 DatabaseNetwork.user[17] AccessInterval ETV
vector 18 DatabaseNetwork.user[18] AccessInterval ETV
vector 19 DatabaseNetwork.user[19] AccessInterval ETV
vector 20 DatabaseNetwork.user[20] AccessInterval ETV
vector 21 DatabaseNetwork.user[21] AccessInterval ETV
vector 22 DatabaseNetwork.user[22] AccessInterval ETV
vector 23 DatabaseNetwork.user[23] AccessInterval ETV
vector 24 DatabaseNetwork.user[24] AccessInterval ETV
vector 25 DatabaseNetwork.user[25] AccessInterval ETV
vector 26 DatabaseNetwork.user[26] AccessInterval ETV
vector 27 DatabaseNetwork.user[27] AccessInterval ETV
vector 28 DatabaseNetwork.user[28] AccessInterval ETV
vector 29 DatabaseNetwork.user[29] AccessInterval ETV
vector 30 DatabaseNetwork.user[30] AccessInterval ETV
vector 31 DatabaseNetwork.user[31] AccessInterval ETV
vector 32 DatabaseNetwork.user[32] AccessInterval ETV
vector 33 DatabaseNetwork.user[33] AccessInterval ETV
vector 34 DatabaseNetwork.user[34] AccessInterval ETV
vector 35 DatabaseNetwork.user[35] AccessInterval ETV
vector 36 DatabaseNetwork.user[36] AccessInterval ETV
vector 37 DatabaseNetwork.user[37] AccessInterval ETV
vector 38 DatabaseNetwork.user[38] AccessInterval ETV
vector 39 DatabaseNetwork.user[39] AccessInterval ETV
vector 40 DatabaseNetwork.user[40] AccessInterval ETV
vector 41 DatabaseNetwork.user[41] AccessInterval ETV
vector 42 DatabaseNetwork.user[42] AccessInterval ETV
vector 43 DatabaseNetwork.user[43] AccessInterval ETV
vector 44 DatabaseNetwork.user[44] AccessInterval ETV
vector 45 DatabaseNetwork.user[45] AccessInterval ETV
vector 46 DatabaseNetwork.user[46] AccessInterval ETV
vector 47 DatabaseNetwork.user[47] AccessInterval ETV
vector 48 DatabaseNetwork.user[48] AccessInterval ETV
vector 49 DatabaseNetwork.user[49] AccessInterval ETV
vector 50 DatabaseNetwork.user[50] AccessInterval ETV
vector 51 DatabaseNetwork.user[51] AccessInterval ETV
vector 52 DatabaseNetwork.user[52] AccessInterval ETV
vector 53 DatabaseNetwork.user[53] AccessInterval ETV
vector 54 DatabaseNetwork.user[54] AccessInterval ETV
vector 55 DatabaseNetwork.user[55] AccessInterval ETV
vector 56 DatabaseNetwork.user[56] AccessInterval ETV
vector 57 DatabaseNetwork.user[57] AccessInterval ETV
vector 58 DatabaseNetwork.user[58] AccessInterval ETV
vector 59 DatabaseNetwork.user[59] AccessInterval ETV
vector 60 DatabaseNetwork.user[60] AccessInterval ETV
vector 61 DatabaseNetwork.user[61] AccessInterval ETV
vector 62 DatabaseNetwork.user[62] AccessInterval ETV
vector 63 DatabaseNetwork.user[63] AccessInterval ETV
vector 64 DatabaseNetwork.user[64] AccessInterval ETV
vector 65 DatabaseNetwork.user[65] AccessInterval ETV
vector 66 DatabaseNetwork.user[66] AccessInterval ETV
vector 67 DatabaseNetwork.user[67] AccessInterval ETV
vector 68 DatabaseNetwork.user[68] AccessInterval ETV
vector 69 DatabaseNetwork.user[69] AccessInterval ETV
vector 70 DatabaseNetwork.user[70] AccessInterval ETV
vector 71 DatabaseNetwork.user[71] AccessInterval ETV
vector 72 DatabaseNetwork.user[72] AccessInterval ETV
vector 73 DatabaseNetwork.user[73] AccessInterval ETV
vector 74 DatabaseNetwork.user[74] AccessInterval ETV
vector 75 DatabaseNetwork.user[21] ReadAccesses ETV
vector 76 DatabaseNetwork.user[14] WriteAccesses ETV
vector 77 DatabaseNetwork.user[32] ReadAccesses ETV
vector 78 DatabaseNetwork.user[21] WaitTime ETV
vector 79 DatabaseNetwork.user[14] WaitTime ETV
vector 80 DatabaseNetwork.user[32] WaitTime ETV
vector 81 DatabaseNetwork.user[41] ReadAccesses ETV
vector 82 DatabaseNetwork.user[41] WaitTime ETV
vector 83 DatabaseNetwork.user[67] WriteAccesses ETV
vector 84 DatabaseNetwork.user[43] WriteAccesses ETV
vector 85 DatabaseNetwork.user[67] WaitTime ETV
vector 86 DatabaseNetwork.user[36] ReadAccesses ETV
vector 87 DatabaseNetwork.user[43] WaitTime ETV
vector 88 DatabaseNetwork.user[36] WaitTime ETV
vector 89 DatabaseNetwork.user[51] WriteAccesses ETV
vector 90 DatabaseNetwork.user[51] WaitTime ETV
vector 91 DatabaseNetwork.user[50] WriteAccesses ETV
vector 92 DatabaseNetwork.user[50] WaitTime ETV
vector 93 DatabaseNetwork.user[66] WriteAccesses ETV
vector 94 DatabaseNetwork.user[66] WaitTime ETV
vector 95 DatabaseNetwork.user[11] WriteAccesses ETV
vector 96 DatabaseNetwork.user[11] WaitTime ETV
vector 97 DatabaseNetwork.user[68] WriteAccesses ETV
vector 98 DatabaseNetwork.user[68] WaitTime ETV
vector 99 DatabaseNetwork.user[28] WriteAccesses ETV
vector 100 DatabaseNetwork.user[54] WriteAccesses ETV
vector 101 DatabaseNetwork.user[28] WaitTime ETV
vector 102 DatabaseNetwork.user[54] WaitTime ETV
vector 103 DatabaseNetwork.user[3] WriteAccesses ETV
vector 104 DatabaseNetwork.user[48] WriteAccesses ETV
vector 105 DatabaseNetwork.user[53] ReadAccesses ETV
vector 106 DatabaseNetwork.user[3] WaitTime ETV
vector 107 DatabaseNetwork.user[48] WaitTime ETV
vector 108 DatabaseNetwork.user[53] WaitTime ETV
vector 109 DatabaseNetwork.user[73] ReadAccesses ETV
vector 110 DatabaseNetwork.user[73] WaitTime ETV
vector 111 DatabaseNetwork.user[22] WriteAccesses ETV
vector 112 DatabaseNetwork.user[22] WaitTime ETV
vector 113 DatabaseNetwork.user[71] ReadAccesses ETV
vector 114 DatabaseNetwork.user[71] WaitTime ETV
vector 115 DatabaseNetwork.user[10] WriteAccesses ETV
vector 116 DatabaseNetwork.user[10] WaitTime ETV
vector 117 DatabaseNetwork.user[13] ReadAccesses ETV
vector 118 DatabaseNetwork.user[13] WaitTime ETV
vector 119 DatabaseNetwork.user[69] WriteAccesses ETV
vector 120 DatabaseNetwork.user[69] WaitTime ETV
vector 121 DatabaseNetwork.user[16] WriteAccesses ETV
vector 122 DatabaseNetwork.user[16] WaitTime ETV
vector 123 DatabaseNetwork.user[65] WriteAccesses ETV
vector 124 DatabaseNetwork.user[65] WaitTime ETV
vector 125 DatabaseNetwork.user[35] WriteAccesses ETV
vector 126 DatabaseNetwork.user[35] WaitTime ETV
vector 127 DatabaseNetwork.user[16] ReadAccesses ETV
vector 128 DatabaseNetwork.user[25] WriteAccesses ETV
vector 129 DatabaseNetwork.user[25] WaitTime ETV
vector 130 DatabaseNetwork.user[73] WriteAccesses ETV
vector 131 DatabaseNetwork.user[34] WriteAccesses ETV
vector 132 DatabaseNetwork.user[34] WaitTime ETV
vector 133 DatabaseNetwork.user[29] WriteAccesses ETV
vector 134 DatabaseNetwork.user[29] WaitTime ETV
vector 135 DatabaseNetwork.user[58] ReadAccesses ETV
vector 136 DatabaseNetwork.user[58] WaitTime ETV
vector 137 DatabaseNetwork.user[18] ReadAccesses ETV
vector 138 DatabaseNetwork.user[40] ReadAccesses ETV
vector 139 DatabaseNetwork.user[18] WaitTime ETV
vector 140 DatabaseNetwork.user[40] WaitTime ETV
vector 141 DatabaseNetwork.user[49] WriteAccesses ETV
vector 142 DatabaseNetwork.user[49] WaitTime ETV
vector 143 DatabaseNetwork.user[47] ReadAccesses ETV
vector 144 DatabaseNetwork.user[47] WaitTime ETV
vector 145 DatabaseNetwork.user[47] WriteAccesses ETV
vector 146 DatabaseNetwork.user[68] ReadAccesses ETV
vector 147 DatabaseNetwork.user[64] WriteAccesses ETV
vector 148 DatabaseNetwork.user[64] WaitTime ETV
vector 149 DatabaseNetwork.user[72] WriteAccesses ETV
vector 150 DatabaseNetwork.user[72] WaitTime ETV
vector 151 DatabaseNetwork.user[60] WriteAccesses ETV
vector 152 DatabaseNetwork.user[60] WaitTime ETV
vector 153 DatabaseNetwork.user[70] WriteAccesses ETV
vector 154 DatabaseNetwork.user[2] ReadAccesses ETV
vector 155 DatabaseNetwork.user[70] WaitTime ETV
vector 156 DatabaseNetwork.user[70] ReadAccesses ETV
vector 157 DatabaseNetwork.user[2] WaitTime ETV
vector 158 DatabaseNetwork.user[23] WriteAccesses ETV
vector 159 DatabaseNetwork.user[23] WaitTime ETV
vector 160 DatabaseNetwork.user[41] WriteAccesses ETV
vector 161 DatabaseNetwork.user[30] WriteAccesses ETV
vector 162 DatabaseNetwork.user[9] WriteAccesses ETV
vector 163 DatabaseNetwork.user[30] WaitTime ETV
vector 164 DatabaseNetwork.user[9] WaitTime ETV
vector 165 DatabaseNetwork.user[52] ReadAccesses ETV
vector 166 DatabaseNetwork.user[52] WaitTime ETV
vector 167 DatabaseNetwork.user[27] WriteAccesses ETV
vector 168 DatabaseNetwork.user[27] WaitTime ETV
vector 169 DatabaseNetwork.user[7] ReadAccesses ETV
vector 170 DatabaseNetwork.user[7] WaitTime ETV
vector 171 DatabaseNetwork.user[33] WriteAccesses ETV
vector 172 DatabaseNetwork.user[33] WaitTime ETV
vector 173 DatabaseNetwork.user[67] ReadAccesses ETV
vector 174 DatabaseNetwork.user[19] WriteAccesses ETV
vector 175 DatabaseNetwork.user[19] WaitTime ETV
vector 176 DatabaseNetwork.user[53] WriteAccesses ETV
vector 177 DatabaseNetwork.user[74] WriteAccesses ETV
vector 178 DatabaseNetwork.user[74] WaitTime ETV
vector 179 DatabaseNetwork.user[36] WriteAccesses ETV
vector 180 DatabaseNetwork.user[7] WriteAccesses ETV
vector 181 DatabaseNetwork.user[37] WriteAccesses ETV
vector 182 DatabaseNetwork.user[37] WaitTime ETV
vector 183 DatabaseNetwork.user[21] WriteAccesses ETV
vector 184 DatabaseNetwork.user[60] ReadAccesses ETV
vector 185 DatabaseNetwork.user[13] WriteAccesses ETV
vector 186 DatabaseNetwork.user[71] WriteAccesses ETV
vector 187 DatabaseNetwork.user[8] WriteAccesses ETV
vector 188 DatabaseNetwork.user[15] WriteAccesses ETV
vector 189 DatabaseNetwork.user[8] WaitTime ETV
vector 190 DatabaseNetwork.user[15] WaitTime ETV
vector 191 DatabaseNetwork.user[6] WriteAccesses ETV
vector 192 DatabaseNetwork.user[54] ReadAccesses ETV
vector 193 DatabaseNetwork.user[6] WaitTime ETV
vector 194 DatabaseNetwork.user[37] ReadAccesses ETV
vector 195 DatabaseNetwork.user[52] WriteAccesses ETV
vector 196 DatabaseNetwork.user[56] WriteAccesses ETV
vector 197 DatabaseNetwork.user[56] WaitTime ETV
vector 198 DatabaseNetwork.user[58] WriteAccesses ETV
vector 199 DatabaseNetwork.user[29] ReadAccesses ETV
vector 200 DatabaseNetwork.user[32] WriteAccesses ETV
vector 201 DatabaseNetwork.user[48] ReadAccesses ETV
vector 202 DatabaseNetwork.user[20] ReadAccesses ETV
vector 203 DatabaseNetwork.user[20] WaitTime ETV
vector 204 DatabaseNetwork.user[6] ReadAccesses ETV
vector 205 DatabaseNetwork.user[69] ReadAccesses ETV
vector 206 DatabaseNetwork.user[43] ReadAccesses ETV
vector 207 DatabaseNetwork.user[44] WriteAccesses ETV
vector 208 DatabaseNetwork.user[18] WriteAccesses ETV
vector 209 DatabaseNetwork.user[44] WaitTime ETV
vector 210 DatabaseNetwork.user[39] ReadAccesses ETV
vector 211 DatabaseNetwork.user[31] ReadAccesses ETV
vector 212 DatabaseNetwork.user[39] WaitTime ETV
vector 213 DatabaseNetwork.user[31] WaitTime ETV
vector 214 DatabaseNetwork.user[49] ReadAccesses ETV
vector 215 DatabaseNetwork.user[63] WriteAccesses ETV
vector 216 DatabaseNetwork.user[63] WaitTime ETV
vector 217 DatabaseNetwork.user[57] WriteAccesses ETV
vector 218 DatabaseNetwork.user[57] WaitTime ETV
vector 219 DatabaseNetwork.user[35] ReadAccesses ETV
vector 220 DatabaseNetwork.user[5] WriteAccesses ETV
vector 221 DatabaseNetwork.user[5] WaitTime ETV
vector 222 DatabaseNetwork.user[24] WriteAccesses ETV
vector 223 DatabaseNetwork.user[24] WaitTime ETV
vector 224 DatabaseNetwork.user[55] WriteAccesses ETV
vector 225 DatabaseNetwork.user[46] WriteAccesses ETV
vector 226 DatabaseNetwork.user[55] WaitTime ETV
vector 227 DatabaseNetwork.user[46] WaitTime ETV
vector 228 DatabaseNetwork.user[61] WriteAccesses ETV
vector 229 DatabaseNetwork.user[61] WaitTime ETV
vector 230 DatabaseNetwork.user[74] ReadAccesses ETV
vector 231 DatabaseNetwork.user[3] ReadAccesses ETV
vector 232 DatabaseNetwork.user[11] ReadAccesses ETV
vector 233 DatabaseNetwork.user[19] ReadAccesses ETV
vector 234 DatabaseNetwork.user[1] ReadAccesses ETV
vector 235 DatabaseNetwork.user[1] WaitTime ETV
vector 236 DatabaseNetwork.user[17] WriteAccesses ETV
vector 237 DatabaseNetwork.user[17] WaitTime ETV
vector 238 DatabaseNetwork.user[64] ReadAccesses ETV
vector 239 DatabaseNetwork.user[20] WriteAccesses ETV
vector 240 DatabaseNetwork.user[56] ReadAccesses ETV
vector 241 DatabaseNetwork.user[59] WriteAccesses ETV
vector 242 DatabaseNetwork.user[59] WaitTime ETV
vector 243 DatabaseNetwork.user[39] WriteAccesses ETV
vector 244 DatabaseNetwork.user[31] WriteAccesses ETV
vector 245 DatabaseNetwork.user[62] WriteAccesses ETV
vector 246 DatabaseNetwork.user[62] WaitTime ETV
vector 247 DatabaseNetwork.user[63] ReadAccesses ETV
vector 248 DatabaseNetwork.user[45] WriteAccesses ETV
vector 249 DatabaseNetwork.user[45] WaitTime ETV
vector 250 DatabaseNetwork.user[10] ReadAccesses ETV
vector 251 DatabaseNetwork.user[42] WriteAccesses ETV
vector 252 DatabaseNetwork.user[42] WaitTime ETV
vector 253 DatabaseNetwork.user[57] ReadAccesses ETV
vector 254 DatabaseNetwork.user[14] ReadAccesses ETV
vector 255 DatabaseNetwork.user[38] ReadAccesses ETV
vector 256 DatabaseNetwork.user[38] WaitTime ETV
vector 257 DatabaseNetwork.user[38] WriteAccesses ETV
vector 258 DatabaseNetwork.user[40] WriteAccesses ETV
vector 259 DatabaseNetwork.user[27] ReadAccesses ETV
vector 260 DatabaseNetwork.user[25] ReadAccesses ETV
vector 261 DatabaseNetwork.user[0] WriteAccesses ETV
vector 262 DatabaseNetwork.user[0] WaitTime ETV
vector 263 DatabaseNetwork.user[2] WriteAccesses ETV
vector 264 DatabaseNetwork.user[72] ReadAccesses ETV
vector 265 DatabaseNetwork.user[4] WriteAccesses ETV
vector 266 DatabaseNetwork.user[4] WaitTime ETV
vector 267 DatabaseNetwork.user[12] WriteAccesses ETV
vector 268 DatabaseNetwork.user[12] WaitTime ETV
vector 269 DatabaseNetwork.user[28] ReadAccesses ETV
vector 270 DatabaseNetwork.user[62] ReadAccesses ETV
vector 271 DatabaseNetwork.user[34] ReadAccesses ETV
vector 272 DatabaseNetwork.user[26] ReadAccesses ETV
vector 273 DatabaseNetwork.user[26] WaitTime ETV
vector 274 DatabaseNetwork.user[59] ReadAccesses ETV
vector 275 DatabaseNetwork.user[1] WriteAccesses ETV
vector 276 DatabaseNetwork.user[65] ReadAccesses ETV
vector 277 DatabaseNetwork.user[12] ReadAccesses ETV
vector 278 DatabaseNetwork.user[24] ReadAccesses ETV
vector 279 DatabaseNetwork.user[42] ReadAccesses ETV
vector 280 DatabaseNetwork.user[33] ReadAccesses ETV
vector 281 DatabaseNetwork.user[22] ReadAccesses ETV
vector 282 DatabaseNetwork.user[26] WriteAccesses ETV
vector 283 DatabaseNetwork.user[61] ReadAccesses ETV
vector 284 DatabaseNetwork.user[23] ReadAccesses ETV
vector 285 DatabaseNetwork.user[50] ReadAccesses ETV
vector 286 DatabaseNetwork.user[4] ReadAccesses ETV
vector 287 DatabaseNetwork.user[8] ReadAccesses ETV
vector 288 DatabaseNetwork.user[66] ReadAccesses ETV
vector 289 DatabaseNetwork.user[15] ReadAccesses ETV
vector 290 DatabaseNetwork.user[44] ReadAccesses ETV
vector 291 DatabaseNetwork.user[46] ReadAccesses ETV
vector 292 DatabaseNetwork.user[45] ReadAccesses ETV
vector 293 DatabaseNetwork.user[51] ReadAccesses ETV
vector 294 DatabaseNetwork.user[5] ReadAccesses ETV
vector 295 DatabaseNetwork.user[9] ReadAccesses ETV
vector 296 DatabaseNetwork.user[17] ReadAccesses ETV
vector 297 DatabaseNetwork.user[55] ReadAccesses ETV
vector 298 DatabaseNetwork.user[30] ReadAccesses ETV
vector 299 DatabaseNetwork.user[0] ReadAccesses ETV
0	16769 23436 0 148373 0 9975.149137863304 558 0.0029276079142465 104.46463134439 10044.999043259 341964.80657562
1	40205 21757 0 148457 0 9981.065542103038 518 0.015623989558225 131.60192713701 10025.864156638 368820.06527505
2	61962 19338 0 148505 0 9983.31116105582 461 0.11093326081476 135.45740468175 10009.201374962 418846.24807151
3	81300 20657 0 148685 0 9997.599212285465 493 0.019941214326379 103.97097995243 10027.811550175 372928.20561288
4	101957 19884 0 148133 0 9958.794832759512 475 0.007120334341891 137.32571600505 10032.083403595 416762.86677148
5	121841 20659 0 148113 0 9956.92439863887 494 0.12415950083284 175.44732551107 10001.243483495 424797.34329635
6	142500 20680 0 148421 0 9978.90489016457 493 0.010384408941758 118.59259767989 10009.878805663 410746.74764613
7	163180 22212 0 148673 0 9995.676599460456 530 0.00012376383987706 142.03879635957 10005.61411229 391605.0835707
8	185392 19993 0 147641 0 9929.263590917573 477 0.014861325892292 151.12435135245 10011.011811365 430505.89766753
9	205385 20542 0 148621 0 9990.453290157269 490 0.034898761080573 135.94384474807 10018.897933658 408605.59344457
10	225927 20105 0 148347 0 9974.197014857322 468 0.0035495340702879 145.12106544504 10005.015601311 425726.71692235
11	246032 20151 0 148343 0 9974.121593213715 469 0.020026976998303 101.25506631817 10029.738172761 415515.06735241
12	266183 20531 0 148669 0 9995.51619176724 478 0.11816035873439 130.9763476901 10000.203189731 440479.22424736
13	286714 21517 0 148409 0 9977.793579471306 501 0.0087820039761462 107.17262035411 10012.87706535 390067.53854864
14	308231 21828 0 148607 0 9989.711645593929 509 0.04360463683343 131.19391599351 10038.133595365 410084.71251473
15	330059 20812 0 148317 0 9972.775847412829 485 0.0047075094875229 164.72417995708 10049.309916744 458491.23396994
16	350871 21495 0 148233 0 9965.341099336722 501 0.087823191856572 158.34853002799 10044.919365216 414804.56892226
17	372366 22003 0 148623 0 9990.481617232032 512 0.013410995585519 172.9193582331 10029.081479491 395639.08071775
18	394369 20970 0 148517 0 9984.200810323424 488 0.0021693309033906 166.20357958534 10011.328225453 453362.84453609
19	415339 23191 0 148605 0 9989.676610005083 540 0.012307642376304 95.732102216174 10003.13256272 342856.00003309
20	438530 21808 0 148689 0 9997.772150545709 508 0.21868827702212 134.4994904339 10019.464567638 381038.6701862
21	460338 22354 0 148657 0 9994.615317134042 520 0.0071020180287052 150.76450130916 10012.091656346 390506.39588641
22	482692 21062 0 148393 0 9976.781224118654 490 0.059186767059034 115.24984106362 10009.44916533 411712.23692097
23	503754 20542 0 148497 0 9982.601431260269 478 0.051400297954184 124.29285486582 10008.822301461 399554.47644722
24	524296 21016 0 148633 0 9993.146289339047 489 0.0079620364071526 140.3559909028 10010.615357473 407015.39417228
25	545312 18835 0 148445 0 9980.360599305668 439 0.047507329378752 168.61977312987 10002.414452045 481750.5114422
26	564147 23128 0 148153 0 9960.473332236045 538 0.01774407387649 111.20446471493 10018.016185081 357232.15597298
27	587275 20694 0 148483 0 9982.106364756341 482 0.00061379290463435 132.26562646478 10000.236096901 392690.17118628
28	607969 21014 0 148649 0 9993.931919537862 489 0.031010098868493 136.7834887739 10001.275130487 422964.0376892
29	628983 20451 0 148601 0 9989.396973925589 477 0.045216550370819 159.43521620384 10003.656087539 410790.98877417
30	649434 21845 0 148519 0 9984.238550183853 508 0.02230096162991 147.20731768034 10023.204052667 396740.79280463
31	671279 23280 0 148477 0 9981.545970045603 542 0.033278881865096 130.76095664841 10011.897549416 396847.10089149
32	694559 20514 0 148701 0 9998.623201541555 478 0.078804734798483 128.15853731844 10007.147932398 426934.77664453
33	715073 23660 0 148429 0 9979.634323978755 551 0.025791063055574 85.368498239127 10005.194023311 326929.52053263
34	738733 20596 0 148585 0 9988.318886307946 480 0.047750984133875 114.46741894471 10009.459441882 397685.09270981
35	759329 20828 0 147819 0 9939.065360311056 485 0.054463336779505 147.02931349729 10025.810439292 438173.16950446
36	780157 21299 0 147361 0 9910.445407856038 497 0.078602041970878 135.77092207378 10008.650660009 411353.7798228
37	801456 21405 0 147773 0 9937.877341001792 499 0.0027505709596991 143.29976163663 10027.285329932 414522.06042008
38	822861 23565 0 148521 0 9984.250929623503 549 0.12696412463735 222.30832138436 10013.961537164 395863.07118725
39	846426 20851 0 148589 0 9988.920561010076 485 0.029541589300919 151.5771546567 10002.138702784 414751.75404304
40	867277 21287 0 148665 0 9995.31843218215 495 0.0004518036539097 136.21752844166 10012.382017756 400828.25817316
41	888564 21048 0 148645 0 9993.441646421152 490 0.017334053604634 135.70230705451 10086.322306683 417068.13611742
42	909612 21058 0 148093 0 9956.174609383518 490 0.098480547920706 175.48287749339 10005.175405284 412067.02388667
43	930670 20542 0 148361 0 9974.768457900064 478 0.026429950347352 129.16825314681 10009.854710059 424962.27391991
44	951212 20971 0 148569 0 9986.731855038567 488 5.5749047015316e-05 183.02726823281 10015.321249783 409801.4872366
45	972183 21052 0 148325 0 9973.191946345891 490 0.011305194495279 113.4166428115 10017.27614639 388644.36027385
46	993235 19065 0 148681 0 9997.034161154982 444 0.24615063046141 134.39990417053 10011.065785719 416447.55759391
47	1012300 21270 0 148617 0 9990.152702582488 495 0.079535384760981 143.02060744781 10009.374458864 428175.3620058
48	1033570 22022 0 148639 0 9993.262186543101 513 0.059000885454518 128.72200320334 10003.556896465 401270.94736245
49	1055592 22195 0 148453 0 9980.92268913759 516 0.020074093252861 113.14213239501 10038.057436762 392210.56435982
50	1077787 21939 0 148371 0 9975.109709523706 511 0.025127615630711 112.6663387803 10040.771405703 376520.66420185
51	1099726 21317 0 148369 0 9975.061247089316 496 0.061071937652386 144.6056079225 10024.772499066 395778.03790082
52	1121043 19968 0 148467 0 9981.227063617286 465 0.0070298942149069 124.95098993578 10030.834465523 424073.9886771
53	1141011 22087 0 148695 0 9998.221773850579 514 0.02366764068246 104.85980773887 10007.585434007 384017.56618011
54	1163098 21691 0 148333 0 9973.506937350585 506 0.21106843469436 161.03219326822 10049.778824764 403146.36340006
55	1184789 20644 0 148613 0 9989.903874551427 481 0.038708760941583 127.01302391498 10000.362601705 411149.82550055
56	1205433 21190 0 148509 0 9983.654078361958 493 0.015606280608321 153.40320659611 10024.636294794 438753.91402494
57	1226623 21434 0 148629 0 9991.480504126152 499 0.0024133560603838 112.47219083212 10034.904529465 396232.05022128
58	1248057 22414 0 148577 0 9986.979785790485 523 0.10109584713127 131.76953145071 10002.651821859 395413.52496287
59	1270471 22569 0 148677 0 9996.360545106434 525 0.0057460472081264 150.95648078865 10037.475427686 371670.06338121
60	1293040 20262 0 148581 0 9987.709355712453 473 0.038912734177054 131.15941693727 10018.756192118 428633.45103696
61	1313302 21516 0 147837 0 9939.873000799962 501 0.12015263657262 127.72052913267 10058.962038596 389705.43677724
62	1334818 22624 0 148705 0 9998.825590386322 526 0.086856981270403 129.88791390772 10008.120837922 389600.48278297
63	1357442 20728 0 148709 0 9999.244694234408 483 0.15968790118371 126.15867008761 10011.34645901 435412.08323546
64	1378170 19694 0 148121 0 9957.840872552035 459 0.0029521239278352 124.89127585828 10015.596074345 424051.49990041
65	1397864 22049 0 148405 0 9977.415235825535 514 0.15997780113876 113.33861003921 10005.96168565 368343.57773288
66	1419913 20314 0 148491 0 9982.227239502941 473 0.092669311951042 115.93672928004 10033.895771156 433126.38046191
67	1440227 19771 0 147781 0 9938.21388191377 461 0.0091447909441672 210.13066373547 10020.099735859 436679.9445942
68	1459998 22344 0 148693 0 9998.221722841672 520 0.004879156118163 134.29714408741 10012.18610466 379732.33414869
69	1482342 20074 0 147729 0 9935.488166903487 468 0.010797795084929 147.63342473585 10001.509736084 405672.31377584
70	1502416 22047 0 148301 0 9970.558166947986 514 0.094354536166276 114.08818248317 10003.372386256 374121.58487343
71	1524463 23489 0 148267 0 9967.356551410955 547 0.01805193716691 160.10426925622 10008.116623306 397074.37579435
72	1547952 20016 0 148571 0 9986.81197429657 466 0.03271125503263 111.55460272972 10013.059494026 410101.6253387
73	1567968 21858 0 148533 0 9984.568367710856 510 0.038214578408419 113.58436730431 10001.815605015 371136.34070659
74	1589826 21556 0 148449 0 9980.643301686705 502 0.016510351854479 135.14101076441 10018.387976448 386854.44137258
75	1611382 4734 1 148557 0.103450084854 9986.483154508529 163 1 1 163 163
76	1616116 9777 3 148593 0.124994920538 9989.095720878506 338 1 1 338 338
77	1625893 4326 5 145217 0.180534259308 9764.106235501454 149 1 1 149 149
78	1630219 23082 8 148660 0.203450084854 9994.715317134042 519 0.099999999998545 0.19423063499016 52.125443921558 5.2503083184746
79	1653301 22490 10 148612 0.224994920538 9989.811645593929 508 0.099999999998545 0.19129639932271 51.217782556106 5.194116281351
80	1675791 21194 12 148704 0.280534259308 9998.723201541555 477 0.099999999998545 0.17539832267494 48.049535137858 4.858208272565
81	1696985 4042 13 148415 0.384160801167 9978.720976519667 139 1 1 139 139
82	1701027 21709 16 148648 0.484160801167 9993.541646421152 489 0.099999999998545 0.19267331075594 49.410353884228 5.0260248504427
83	1722736 9093 17 147409 0.728263474785 9914.691360721952 314 1 1 314 314
84	1731829 9438 19 147591 0.811864623012 9927.632152665037 325 1 1 325 325
85	1741267 20370 22 147788 0.828263474785 9938.31388191377 460 0.099999999998545 0.19151612763199 46.312416435844 4.6842893621561
86	1761637 4601 23 146909 0.903296000607 9877.251446181763 159 1 1 159 159
87	1766238 21158 26 148364 0.911864623012 9974.868457900064 477 0.099999999998545 0.19106578826097 48.265534580154 4.9239521728377
88	1787396 21986 28 147364 1.003296000607 9910.545407856038 496 0.099999999998545 0.1999704955133 50.016832357357 5.0715200744274
89	1809382 10679 29 148369 1.359358055177 9975.061247089316 367 1 1 367 367
90	1820061 21997 32 148376 1.459358055177 9975.161247089316 495 0.099999999998545 0.19793474658218 49.604201436818 4.9804545919213
91	1842058 9918 33 148161 1.558119222586 9961.690506378026 342 1 1 342 342
92	1851976 22674 36 148378 1.658119222586 9975.209709523706 510 0.099999999998545 0.1452584012477 51.143968829751 5.1341314436609
93	1874650 9200 37 148491 2.290119420087 9982.227239502941 317 1 1 317 317
94	1883850 20971 40 148496 2.390119420087 9982.327239502941 472 0.099999999998545 0.18194372178095 47.48432735878 4.79374107581
95	1904821 9910 41 148169 3.050537345286 9962.197824510601 341 1 1 341 341
96	1914731 20769 44 148350 3.150537345286 9974.221593213715 468 0.099999999998545 0.188028199158 47.025685353328 4.738328235112
97	1935500 10403 45 148693 3.44481259217 9998.221722841672 358 1 1 358 358
98	1945903 23078 48 148698 3.54481259217 9998.321722841672 519 0.099999999998545 0.18913272628743 52.274930354115 5.2893574965423
99	1968981 9981 49 148649 3.578759603203 9993.931919537862 343 1 1 343 343
100	1978962 10533 51 148333 3.677788115414 9973.506937350585 351 1 1 351 351
101	1989495 22167 54 148652 3.678759603203 9994.031919537862 488 0.099999999998545 0.19914086500467 49.301147043287 5.0154287742263
102	2011662 22905 56 148336 3.777788115414 9973.606937350585 505 0.099999999998545 0.19647563433864 50.896325964546 5.1564927608875
103	2034567 10089 57 148469 3.791644837522 9981.276533504152 336 1 1 336 336
104	2044656 11158 59 148639 3.803012575959 9993.262186543101 372 1 1 372 372
105	2055814 4164 61 145395 3.868327182727 9776.978996989272 139 1 1 139 139
106	2059978 22326 64 148688 3.891644837522 9997.699212285465 492 0.099999999998545 0.1912471213509 49.435872955997 4.9823128075042
107	2082304 23246 66 148644 3.903012575959 9993.362186543101 512 0.099999999998545 0.20660936895229 51.922791312895 5.3233214226525
108	2105550 23279 68 148700 3.968327182727 9998.321773850579 513 0.099999999998545 0.19531536571208 51.875883701042 5.2903474078289
109	2128829 4432 69 148533 3.986601970845 9984.568367710856 148 1 1 148 148
110	2133261 23004 72 148536 4.086601970845 9984.668367710856 509 0.099999999998545 0.19908634128387 51.357672283142 5.2107753738282
111	2156265 10023 73 148211 4.405081391127 9964.313231253758 333 1 1 333 333
112	2166288 22224 76 148396 4.505081391127 9976.881224118654 489 0.099999999998545 0.19159674268576 49.237018314644 4.9800554796923
113	2188512 4388 77 148267 4.744356508647 9967.356551410955 146 1 1 146 146
114	2192900 24798 80 148272 4.844356508647 9967.456551410955 546 0.099999999998545 0.1878465304062 54.942628539611 5.5504553183184
115	2217698 9921 81 148347 4.869208481028 9974.197014857322 330 1 1 330 330
116	2227619 21215 84 148352 4.969208481028 9974.297014857322 467 0.099999999998545 0.1805273553291 47.2105914967 4.8065141214442
117	2248834 4317 85 147571 5.085098776772 9925.848792151381 144 1 1 144 144
118	2253151 22719 88 148412 5.185098776772 9977.893579471306 500 0.099999999998545 0.18902612625197 50.28003854722 5.0728225400264