file 2899039 1767626728                                         
version 3
run Uniform-1-20260105-16:25:28-14448
attr configname Uniform
attr datetime 20260105-16:25:28
attr datetimef 20260105-162528
attr experiment Uniform
attr inifile omnetpp.ini
attr iterationvars "$N=50, $p=0.5"
attr iterationvarsd N=50/p=0.5
attr iterationvarsf N=50,p=0.5-
attr measurement "$N=50, $p=0.5"
attr network progetto.DatabaseNetwork
attr processid 14448
attr repetition 1
attr replication #1
attr resultdir results
attr runnumber 1
attr seedset 1
itervar N 50
itervar p 0.5
config description "Uniform distribution - varia N e p"
config *.user[*].tableDistribution "\"uniform\""
config *.numUsers 50
config *.user[*].readProbability 0.5
config network progetto.DatabaseNetwork
config sim-time-limit 10000s
config cpu-time-limit 3600s
config repeat 5
config seed-set 1
config output-vector-file "results/Uniform-$N=50, $p=0.5-1.vec"
config output-scalar-file "results/Uniform-$N=50, $p=0.5-1.sca"
config result-dir results
config **.vector-recording true
config **.scalar-recording true
config *.numTables 20
config *.user[*].lambda 0.05
config *.user[*].serviceTime 0.1s

vector 0 DatabaseNetwork.user[0] AccessInterval ETV
vector 1 DatabaseNetwork.user[1] AccessInterval ETV
vector 2 DatabaseNetwork.user[2] AccessInterval ETV
vector 3 DatabaseNetwork.user[3] AccessInterval ETV
vector 4 DatabaseNetwork.user[4] AccessInterval ETV
vector 5 DatabaseNetwork.user[5] AccessInterval ETV
vector 6 DatabaseNetwork.user[6] AccessInterval ETV
vector 7 DatabaseNetwork.user[7] AccessInterval ETV
vector 8 DatabaseNetwork.user[8] AccessInterval ETV
vector 9 DatabaseNetwork.user[9] AccessInterval ETV
vector 10 DatabaseNetwork.user[10] AccessInterval ETV
vector 11 DatabaseNetwork.user[11] AccessInterval ETV
vector 12 DatabaseNetwork.user[12] AccessInterval ETV
vector 13 DatabaseNetwork.user[13] AccessInterval ETV
vector 14 DatabaseNetwork.user[14] AccessInterval ETV
vector 15 DatabaseNetwork.user[15] AccessInterval ETV
vector 16 DatabaseNetwork.user[16] AccessInterval ETV
vector 17 DatabaseNetwork.user[17] AccessInterval ETV
vector 18 DatabaseNetwork.user[18] AccessInterval ETV
vector 19 DatabaseNetwork.user[19] AccessInterval ETV
vector 20 DatabaseNetwork.user[20] AccessInterval ETV
vector 21 DatabaseNetwork.user[21] AccessInterval ETV
vector 22 DatabaseNetwork.user[22] AccessInterval ETV
vector 23 DatabaseNetwork.user[23] AccessInterval ETV
vector 24 DatabaseNetwork.user[24] AccessInterval ETV
vector 25 DatabaseNetwork.user[25] AccessInterval ETV
vector 26 DatabaseNetwork.user[26] AccessInterval ETV
vector 27 DatabaseNetwork.user[27] AccessInterval ETV
vector 28 DatabaseNetwork.user[28] AccessInterval ETV
vector 29 DatabaseNetwork.user[29] AccessInterval ETV
vector 30 DatabaseNetwork.user[30] AccessInterval ETV
vector 31 DatabaseNetwork.user[31] AccessInterval ETV
vector 32 DatabaseNetwork.user[32] AccessInterval ETV
vector 33 DatabaseNetwork.user[33] AccessInterval ETV
vector 34 DatabaseNetwork.user[34] AccessInterval ETV
vector 35 DatabaseNetwork.user[35] AccessInterval ETV
vector 36 DatabaseNetwork.user[36] AccessInterval ETV
vector 37 DatabaseNetwork.user[37] AccessInterval ETV
vector 38 DatabaseNetwork.user[38] AccessInterval ETV
vector 39 DatabaseNetwork.user[39] AccessInterval ETV
vector 40 DatabaseNetwork.user[40] AccessInterval ETV
vector 41 DatabaseNetwork.user[41] AccessInterval ETV
vector 42 DatabaseNetwork.user[42] AccessInterval ETV
vector 43 DatabaseNetwork.user[43] AccessInterval ETV
vector 44 DatabaseNetwork.user[44] AccessInterval ETV
vector 45 DatabaseNetwork.user[45] AccessInterval ETV
vector 46 DatabaseNetwork.user[46] AccessInterval ETV
vector 47 DatabaseNetwork.user[47] AccessInterval ETV
vector 48 DatabaseNetwork.user[48] AccessInterval ETV
vector 49 DatabaseNetwork.user[49] AccessInterval ETV
vector 50 DatabaseNetwork.user[4] ReadAccesses ETV
vector 51 DatabaseNetwork.user[4] WaitTime ETV
vector 52 DatabaseNetwork.user[28] ReadAccesses ETV
vector 53 DatabaseNetwork.user[28] WaitTime ETV
vector 54 DatabaseNetwork.user[10] WriteAccesses ETV
vector 55 DatabaseNetwork.user[45] ReadAccesses ETV
vector 56 DatabaseNetwork.user[10] WaitTime ETV
vector 57 DatabaseNetwork.user[45] WaitTime ETV
vector 58 DatabaseNetwork.user[5] WriteAccesses ETV
vector 59 DatabaseNetwork.user[5] WaitTime ETV
vector 60 DatabaseNetwork.user[36] ReadAccesses ETV
vector 61 DatabaseNetwork.user[36] WaitTime ETV
vector 62 DatabaseNetwork.user[8] WriteAccesses ETV
vector 63 DatabaseNetwork.user[8] WaitTime ETV
vector 64 DatabaseNetwork.user[12] ReadAccesses ETV
vector 65 DatabaseNetwork.user[12] WaitTime ETV
vector 66 DatabaseNetwork.user[28] WriteAccesses ETV
vector 67 DatabaseNetwork.user[38] WriteAccesses ETV
vector 68 DatabaseNetwork.user[38] WaitTime ETV
vector 69 DatabaseNetwork.user[24] ReadAccesses ETV
vector 70 DatabaseNetwork.user[24] WaitTime ETV
vector 71 DatabaseNetwork.user[27] ReadAccesses ETV
vector 72 DatabaseNetwork.user[27] WaitTime ETV
vector 73 DatabaseNetwork.user[9] ReadAccesses ETV
vector 74 DatabaseNetwork.user[9] WaitTime ETV
vector 75 DatabaseNetwork.user[12] WriteAccesses ETV
vector 76 DatabaseNetwork.user[5] ReadAccesses ETV
vector 77 DatabaseNetwork.user[6] ReadAccesses ETV
vector 78 DatabaseNetwork.user[6] WaitTime ETV
vector 79 DatabaseNetwork.user[21] ReadAccesses ETV
vector 80 DatabaseNetwork.user[44] ReadAccesses ETV
vector 81 DatabaseNetwork.user[21] WaitTime ETV
vector 82 DatabaseNetwork.user[44] WaitTime ETV
vector 83 DatabaseNetwork.user[14] ReadAccesses ETV
vector 84 DatabaseNetwork.user[14] WaitTime ETV
vector 85 DatabaseNetwork.user[13] WriteAccesses ETV
vector 86 DatabaseNetwork.user[13] WaitTime ETV
vector 87 DatabaseNetwork.user[11] WriteAccesses ETV
vector 88 DatabaseNetwork.user[16] ReadAccesses ETV
vector 89 DatabaseNetwork.user[11] WaitTime ETV
vector 90 DatabaseNetwork.user[16] WaitTime ETV
vector 91 DatabaseNetwork.user[36] WriteAccesses ETV
vector 92 DatabaseNetwork.user[0] WriteAccesses ETV
vector 93 DatabaseNetwork.user[32] ReadAccesses ETV
vector 94 DatabaseNetwork.user[20] WriteAccesses ETV
vector 95 DatabaseNetwork.user[0] WaitTime ETV
vector 96 DatabaseNetwork.user[32] WaitTime ETV
vector 97 DatabaseNetwork.user[20] WaitTime ETV
vector 98 DatabaseNetwork.user[35] WriteAccesses ETV
vector 99 DatabaseNetwork.user[35] WaitTime ETV
vector 100 DatabaseNetwork.user[25] WriteAccesses ETV
vector 101 DatabaseNetwork.user[25] WaitTime ETV
vector 102 DatabaseNetwork.user[33] WriteAccesses ETV
vector 103 DatabaseNetwork.user[33] WaitTime ETV
vector 104 DatabaseNetwork.user[32] WriteAccesses ETV
vector 105 DatabaseNetwork.user[38] ReadAccesses ETV
vector 106 DatabaseNetwork.user[47] WriteAccesses ETV
vector 107 DatabaseNetwork.user[47] WaitTime ETV
vector 108 DatabaseNetwork.user[11] ReadAccesses ETV
vector 109 DatabaseNetwork.user[23] WriteAccesses ETV
vector 110 DatabaseNetwork.user[23] WaitTime ETV
vector 111 DatabaseNetwork.user[29] WriteAccesses ETV
vector 112 DatabaseNetwork.user[29] WaitTime ETV
vector 113 DatabaseNetwork.user[18] WriteAccesses ETV
vector 114 DatabaseNetwork.user[18] WaitTime ETV
vector 115 DatabaseNetwork.user[34] ReadAccesses ETV
vector 116 DatabaseNetwork.user[34] WaitTime ETV
vector 117 DatabaseNetwork.user[33] ReadAccesses ETV
vector 118 DatabaseNetwork.user[35] ReadAccesses ETV
vector 119 DatabaseNetwork.user[15] ReadAccesses ETV
vector 120 DatabaseNetwork.user[30] ReadAccesses ETV
vector 121 DatabaseNetwork.user[15] WaitTime ETV
vector 122 DatabaseNetwork.user[30] WaitTime ETV
vector 123 DatabaseNetwork.user[18] ReadAccesses ETV
vector 124 DatabaseNetwork.user[22] ReadAccesses ETV
vector 125 DatabaseNetwork.user[22] WaitTime ETV
vector 126 DatabaseNetwork.user[13] ReadAccesses ETV
vector 127 DatabaseNetwork.user[46] WriteAccesses ETV
vector 128 DatabaseNetwork.user[46] WaitTime ETV
vector 129 DatabaseNetwork.user[10] ReadAccesses ETV
vector 130 DatabaseNetwork.user[45] WriteAccesses ETV
vector 131 DatabaseNetwork.user[41] ReadAccesses ETV
vector 132 DatabaseNetwork.user[41] WaitTime ETV
vector 133 DatabaseNetwork.user[23] ReadAccesses ETV
vector 134 DatabaseNetwork.user[2] ReadAccesses ETV
vector 135 DatabaseNetwork.user[2] WaitTime ETV
vector 136 DatabaseNetwork.user[30] WriteAccesses ETV
vector 137 DatabaseNetwork.user[6] WriteAccesses ETV
vector 138 DatabaseNetwork.user[46] ReadAccesses ETV
vector 139 DatabaseNetwork.user[0] ReadAccesses ETV
vector 140 DatabaseNetwork.user[14] WriteAccesses ETV
vector 141 DatabaseNetwork.user[15] WriteAccesses ETV
vector 142 DatabaseNetwork.user[39] ReadAccesses ETV
vector 143 DatabaseNetwork.user[39] WaitTime ETV
vector 144 DatabaseNetwork.user[44] WriteAccesses ETV
vector 145 DatabaseNetwork.user[40] ReadAccesses ETV
vector 146 DatabaseNetwork.user[40] WaitTime ETV
vector 147 DatabaseNetwork.user[43] WriteAccesses ETV
vector 148 DatabaseNetwork.user[43] WaitTime ETV
vector 149 DatabaseNetwork.user[4] WriteAccesses ETV
vector 150 DatabaseNetwork.user[19] WriteAccesses ETV
vector 151 DatabaseNetwork.user[19] WaitTime ETV
vector 152 DatabaseNetwork.user[19] ReadAccesses ETV
vector 153 DatabaseNetwork.user[49] WriteAccesses ETV
vector 154 DatabaseNetwork.user[49] WaitTime ETV
vector 155 DatabaseNetwork.user[48] ReadAccesses ETV
vector 156 DatabaseNetwork.user[48] WaitTime ETV
vector 157 DatabaseNetwork.user[26] ReadAccesses ETV
vector 158 DatabaseNetwork.user[26] WaitTime ETV
vector 159 DatabaseNetwork.user[34] WriteAccesses ETV
vector 160 DatabaseNetwork.user[22] WriteAccesses ETV
vector 161 DatabaseNetwork.user[31] ReadAccesses ETV
vector 162 DatabaseNetwork.user[31] WaitTime ETV
vector 163 DatabaseNetwork.user[9] WriteAccesses ETV
vector 164 DatabaseNetwork.user[26] WriteAccesses ETV
vector 165 DatabaseNetwork.user[3] ReadAccesses ETV
vector 166 DatabaseNetwork.user[3] WaitTime ETV
vector 167 DatabaseNetwork.user[17] ReadAccesses ETV
vector 168 DatabaseNetwork.user[17] WaitTime ETV
vector 169 DatabaseNetwork.user[37] ReadAccesses ETV
vector 170 DatabaseNetwork.user[37] WaitTime ETV
vector 171 DatabaseNetwork.user[17] WriteAccesses ETV
vector 172 DatabaseNetwork.user[2] WriteAccesses ETV
vector 173 DatabaseNetwork.user[31] WriteAccesses ETV
vector 174 DatabaseNetwork.user[40] WriteAccesses ETV
vector 175 DatabaseNetwork.user[8] ReadAccesses ETV
vector 176 DatabaseNetwork.user[24] WriteAccesses ETV
vector 177 DatabaseNetwork.user[49] ReadAccesses ETV
vector 178 DatabaseNetwork.user[42] WriteAccesses ETV
vector 179 DatabaseNetwork.user[42] WaitTime ETV
vector 180 DatabaseNetwork.user[21] WriteAccesses ETV
vector 181 DatabaseNetwork.user[47] ReadAccesses ETV
vector 182 DatabaseNetwork.user[3] WriteAccesses ETV
vector 183 DatabaseNetwork.user[43] ReadAccesses ETV
vector 184 DatabaseNetwork.user[37] WriteAccesses ETV
vector 185 DatabaseNetwork.user[41] WriteAccesses ETV
vector 186 DatabaseNetwork.user[29] ReadAccesses ETV
vector 187 DatabaseNetwork.user[42] ReadAccesses ETV
vector 188 DatabaseNetwork.user[16] WriteAccesses ETV
vector 189 DatabaseNetwork.user[1] WriteAccesses ETV
vector 190 DatabaseNetwork.user[1] WaitTime ETV
vector 191 DatabaseNetwork.user[48] WriteAccesses ETV
vector 192 DatabaseNetwork.user[25] ReadAccesses ETV
vector 193 DatabaseNetwork.user[20] ReadAccesses ETV
vector 194 DatabaseNetwork.user[1] ReadAccesses ETV
vector 195 DatabaseNetwork.user[7] ReadAccesses ETV
vector 196 DatabaseNetwork.user[7] WaitTime ETV
vector 197 DatabaseNetwork.user[39] WriteAccesses ETV
vector 198 DatabaseNetwork.user[27] WriteAccesses ETV
vector 199 DatabaseNetwork.user[7] WriteAccesses ETV
0	11492 21839 0 98997 0 9975.889240837011 525 0.051234964984868 110.84295371163 10011.368786437 362107.65807604
1	33331 21463 0 98843 0 9963.033042025102 516 0.028812712126022 143.04623340627 10032.157358047 412635.44619447
2	54794 21431 0 99089 0 9987.549122327999 516 0.0096988255991887 138.69600834884 10022.653325311 389571.05528406
3	76225 20205 0 98447 0 9926.396825802517 486 0.0089321996753779 162.44347657589 10016.745022246 417749.54729922
4	96430 19144 0 99115 0 9990.11807412227 461 0.0022877524501596 143.15974534675 10006.388482198 422252.41762475
5	115574 20026 0 98677 0 9949.427426591918 482 0.16732727190766 188.71159600345 10022.980594614 423914.13925166
6	135600 21600 0 98909 0 9966.955448889771 520 0.0047694757447799 189.74195071835 10008.780151998 389988.02298529
7	157200 20360 0 99031 0 9980.456655506023 489 0.031380891463851 168.15603931475 10003.638152089 440802.55820693
8	177560 20240 0 98727 0 9953.323081334019 487 0.031733389360898 183.7954060235 10010.668256291 426507.25363029
9	197800 20142 0 98965 0 9972.026584065267 485 0.061511334387973 122.31986769862 10002.968917605 404520.78379457
10	217942 21861 0 99179 0 9996.153595328499 514 0.024240820074891 115.40043658838 10097.894385185 393573.15581006
11	239803 21990 0 98651 0 9944.782361932636 517 0.0062286866162945 151.63122362319 10003.837033264 427613.91535108
12	261793 22372 0 98347 0 9913.015986762539 526 0.032509817053472 150.63219787254 10028.60736603 412703.43293712
13	284165 20395 0 97875 0 9862.891699403547 480 0.10111233552027 166.12095365188 10000.203222874 447049.02536099
14	304560 20719 0 99061 0 9983.436781929749 487 0.0098736877915384 144.06945097505 10127.506232905 449321.83411385
15	325279 20168 0 99133 0 9990.421957350433 474 0.031648457969333 139.59973387613 10043.838416591 431682.22753939
16	345447 20713 0 99197 0 9999.088161890493 487 0.010371363658346 122.17557611469 10007.784195932 409546.53435077
17	366160 18646 0 98985 0 9974.511411404623 438 0.023655411927899 155.38097481153 10016.397536558 449497.43267655
18	384806 20318 0 98993 0 9975.053289071569 477 0.023151116350428 154.04314371709 10008.834674367 424139.1886549
19	405124 20312 0 99185 0 9996.501166250001 477 0.037590327724863 129.90963351858 10001.883497208 423658.17018165
20	425436 20759 0 99141 0 9991.081582127087 488 0.003767209999471 102.98281600494 10008.774996737 385050.2339868
21	446195 21759 0 99173 0 9996.029940310807 511 0.014823681847273 130.45124485531 10022.830893015 401082.13686654
22	467954 21175 0 99189 0 9996.727910120343 498 0.011596222424663 133.87975209946 10047.905560918 399316.12541666
23	489129 23304 0 99037 0 9980.886179092497 548 0.071418434536173 116.17496978233 10046.676896709 375156.84811746
24	512433 20931 0 99005 0 9976.920251325624 492 0.070974656299187 174.09663289428 10003.710000559 407995.25313477
25	533364 20812 0 99025 0 9979.0764662856 489 0.0048817737732884 126.21822025211 10076.599803519 393982.84672549
26	554176 21630 0 99175 0 9996.099086575689 508 0.0074573910385494 123.80142411281 10026.590913603 389069.39823953
27	575806 22701 0 98745 0 9954.839102559341 533 0.022180687342159 138.4521635458 10002.702403629 386462.56454677
28	598507 19881 0 98921 0 9967.568536978461 467 0.038335942919895 125.72276001175 10005.973634176 419061.84932771
29	618388 21586 0 98877 0 9965.361969969297 507 0.031844005926585 92.174258355465 10016.645391552 378112.26180373
30	639974 22934 0 99113 0 9990.048077149955 539 0.045043553774284 111.06735699411 10003.773485638 353727.99835727
31	662908 20935 0 98715 0 9952.711255452232 492 0.020866145854828 104.8301977308 10046.409975537 398961.72890731
32	683843 19057 0 99105 0 9989.013592909989 448 0.026255749994766 146.54077052811 10023.748901511 481512.43750092
33	702900 21974 0 99101 0 9988.773738948348 516 0.11248577557766 124.626161655 10005.892468732 399477.57612625
34	724874 19899 0 99085 0 9987.092463379813 468 0.099623511728748 184.22710797948 10001.299993382 456918.37845738
35	744773 20362 0 99041 0 9981.2914297979 478 0.036774659823825 114.29960541522 10048.87649311 436332.52201227
36	765135 21825 0 99159 0 9994.194035165176 512 0.022314466892583 147.56704718234 10001.046285147 436308.20717275
37	786960 21323 0 99051 0 9981.859425766796 500 0.010699091710082 128.92525215641 10001.527156729 380338.95695989
38	808283 22393 0 99155 0 9994.157991223938 526 0.0091809521365116 131.53743934764 10009.260088695 378272.37721508
39	830676 21208 0 99153 0 9994.074619234545 498 0.1141889729258 122.40810658407 10001.229798784 416860.55747372
40	851884 23158 0 99069 0 9984.492289351598 544 0.04482422403855 133.22995350311 10037.95344077 356762.32269579
41	875042 21728 0 99043 0 9981.369724825493 510 0.092962868936504 150.30015386236 10009.00020158 411112.7136882
42	896770 20304 0 99093 0 9987.896369777813 477 0.093955143935072 143.74399646172 10022.358866656 415585.29429196
43	917074 22243 0 98999 0 9975.955210665808 522 0.059105702851395 174.67491564188 10017.047747925 404614.23371105
44	939317 20133 0 99077 0 9986.605002957682 473 0.027238299938806 131.73367803842 10003.197629655 440330.06255774
45	959450 19691 0 99057 0 9982.833272019833 463 0.023856965881187 136.13899530595 10029.664709483 424003.36090863
46	979141 21528 0 99149 0 9992.829674654064 506 0.039611814825651 127.76620391215 10003.384897046 370912.25658411
47	1000669 20829 0 99193 0 9997.29731205588 489 0.022519802085586 176.25530530162 10035.628683355 417476.48387008
48	1021498 21119 0 98625 0 9941.676306480286 496 0.013158788942488 116.58926275025 10010.871052698 387733.37725995
49	1042617 21666 0 99073 0 9986.462686226817 508 0.018667859742578 99.138065853756 10018.85084434 374065.57823229
50	1064283 6291 1 99015 0.00228775245 9978.673442378309 220 1 1 220 220
51	1070574 20248 4 99128 0.10228775245 9990.248077149955 460 0.099999999998545 0.222133020402 46.15213604809 4.6462438659608
52	1090822 5784 5 97277 0.555392552337 9801.533350821527 202 1 1 202 202
53	1096606 20550 8 98926 0.655392552337 9967.668536978461 466 0.099999999998545 0.18292474873306 46.804122842508 4.715058679104
54	1117156 7112 9 99179 1.937677450053 9996.153595328499 249 1 1 249 249
55	1124268 6386 11 98923 1.947864782496 9967.610260951518 223 1 1 223 223
56	1130654 22525 14 99184 2.037677450053 9996.253595328499 513 0.099999999998545 0.19880657395424 51.744827859985 5.2545941617226
57	1153179 20346 16 99060 2.047864782496 9982.933272019833 462 0.099999999998545 0.15881012232057 46.324149060631 4.650720359632
58	1173525 6994 17 98677 2.742171611863 9949.427426591918 244 1 1 244 244
59	1180519 21131 20 98680 2.842171611863 9949.527426591918 481 0.099999999998545 0.19047823010624 48.310150624115 4.8673983412204
60	1201650 7342 21 98857 3.025458353437 9963.9970060688 256 1 1 256 256
61	1208992 22542 24 99164 3.125458353437 9994.357991223938 511 0.099999999998545 0.18473805657777 51.324186539989 5.1685765895164
62	1231534 7307 25 98727 3.174191944526 9953.323081334019 255 1 1 255 255
63	1238841 21399 28 98732 3.274191944526 9953.423081334019 486 0.099999999998545 0.18933055619345 48.946310005962 4.9561668948253
64	1260240 7213 29 98347 4.122292679277 9913.015986762539 252 1 1 252 252
65	1267453 23055 32 98352 4.222292679277 9913.115986762539 525 0.099999999998545 0.16207162112187 52.563811424336 5.2666181979311
66	1290508 7590 33 98921 4.277898331503 9967.568536978461 264 1 1 264 264
67	1298098 7621 37 99117 4.415464337692 9990.136756985765 266 1 1 266 266
68	1305719 23109 40 99162 4.515464337692 9994.257991223938 525 0.099999999998545 0.15889446510846 52.629230297917 5.2826859319099
69	1328828 6899 41 99005 4.574488131862 9976.920251325624 241 1 1 241 241
70	1335727 21623 44 99008 4.674488131862 9977.020251325624 491 0.099999999998545 0.19644161336146 49.425666079263 5.0023418556024
71	1357350 7428 49 98663 5.216316998776 9945.324724298615 259 1 1 259 259
72	1364778 23473 52 98748 5.316316998776 9954.939102559341 532 0.099999999998545 0.16625785938868 53.266257859381 5.337641675807
73	1388251 6813 53 98853 5.386079153525 9963.867966803728 238 1 1 238 238
74	1395064 21297 56 98968 5.486079153525 9972.126584065267 484 0.099999999998545 0.15779828958216 48.66534516085 4.9067632544431
75	1416361 7817 57 98097 6.341561541689 9888.479889724536 273 1 1 273 273
76	1424178 6792 65 98265 7.143908506183 9903.537030088359 237 1 1 237 237
77	1430970 7776 67 98909 7.200254957118 9966.955448889771 272 1 1 272 272
78	1438746 22861 72 98912 7.300254957118 9967.055448889771 519 0.099999999998545 0.17099268851098 52.027174127169 5.2222731072302
79	1461607 7032 73 99173 7.516383853158 9996.029940310807 245 1 1 245 245
80	1468639 6866 75 99077 7.520772448292 9986.605002957682 239 1 1 239 239
81	1475505 22484 78 99178 7.616383853158 9996.129940310807 510 0.099999999998545 0.16635673667224 51.227741361903 5.157101492462
82	1497989 20777 80 99080 7.620772448292 9986.705002957682 472 0.099999999998545 0.18656463528077 47.645336601981 4.8367521367813
83	1518766 6816 81 98813 8.479529576145 9961.251970987794 238 1 1 238 238
84	1525582 21317 84 99064 8.579529576145 9983.536781929749 486 0.099999999998545 0.19580869009042 48.855893461127 4.9276139284614
85	1546899 6846 85 97875 9.81754315573 9862.891699403547 240 1 1 240 240
86	1553745 21030 88 97882 9.91754315573 9862.991699403547 479 0.099999999998545 0.17752480116724 48.267757893905 4.8882098559586
87	1574775 7561 89 98651 10.102860213487 9944.782361932636 264 1 1 264 264
88	1582336 7158 91 98753 10.109050649433 9955.097194257319 250 1 1 250 250
89	1589494 22676 94 98658 10.202860213487 9944.882361932636 516 0.099999999998545 0.18817883930478 51.890045213852 5.2398187825609
90	1612170 21392 96 99200 10.209050649433 9999.188161890493 486 0.099999999998545 0.15648196752136 48.783548063904 4.9049496684274
91	1633562 7321 97 99159 10.607247841544 9994.194035165176 255 1 1 255 255
92	1640883 7244 101 98225 10.792116530237 9901.337608076584 252 1 1 252 252
93	1648127 6108 103 99105 10.801820995773 9989.013592909989 213 1 1 213 213
94	1654235 6889 105 99141 10.866787572517 9991.081582127087 241 1 1 241 241
95	1661124 23107 108 99002 10.892116530237 9975.989240837011 524 0.099999999998545 0.18692801281941 52.564716359009 5.2841196554531
96	1684231 19681 110 99108 10.901820995773 9989.113592909989 447 0.099999999998545 0.13819332166531 44.73819332167 4.4790973941538
97	1703912 21459 112 99144 10.992116530237 9991.181582127087 487 0.099999999998545 0.19081011956405 48.948547130744 4.9365299372367
98	1725371 6431 117 99041 11.266904626835 9981.2914297979 224 1 1 224 224
99	1731802 21012 120 99046 11.366904626835 9981.3914297979 477 0.099999999998545 0.13876568944488 47.765821941649 4.7853992077914
100	1752814 7217 129 99025 11.720069290216 9979.0764662856 244 1 1 244 244
101	1760031 21992 132 99028 11.820069290216 9979.1764662856 488 0.099999999998545 0.17972480500794 48.92032051109 4.9120681581046
102	1782023 7676 133 99101 12.220464220164 9988.773738948348 259 1 1 259 259
103	1789699 23202 136 99104 12.320464220164 9988.873738948348 515 0.099999999998545 0.18691764204232 51.644055906474 5.1892444762494
104	1812901 6941 137 98613 13.801456643757 9940.69658467315 234 1 1 234 234
105	1819842 7690 141 99155 14.206722760091 9994.157991223938 259 1 1 259 259
106	1827532 6982 149 99109 14.602554102703 9989.912267252005 235 1 1 235 235
107	1834514 22016 152 99196 14.702554102703 9997.39731205588 488 0.099999999998545 0.19722131464869 49.051240698165 4.9520973793442
108	1856530 7452 153 98313 14.742702879516 9908.432763308845 252 1 1 252 252
109	1863982 7491 157 97889 14.869793813563 9864.711209310162 253 1 1 253 253
110	1871473 24624 160 99040 14.969793813563 9980.986179092497 547 0.099999999998545 0.19007459859802 55.142773199533 5.5921591964162
111	1896097 6999 161 98877 15.289165049021 9965.361969969297 236 1 1 236 236
112	1903096 22804 164 98880 15.389165049021 9965.461969969297 506 0.099999999998545 0.19410418588905 50.840738381842 5.1246180013051
113	1925900 7275 165 98993 15.479195405514 9975.053289071569 245 1 1 245 245
114	1933175 21443 168 98996 15.579195405514 9975.153289071569 476 0.099999999998545 0.19142954212566 47.752136664601 4.8024720488126
115	1954618 7247 173 98949 16.360146227598 9969.792063935308 245 1 1 245 245
116	1961865 21020 176 99088 16.460146227598 9987.192463379813 467 0.099999999998545 0.16917866352651 46.805423884009 4.6971841802981
117	1982885 7595 177 98673 18.512703701238 9948.573717861936 256 1 1 256 256
118	1990480 7510 181 98973 20.232092535774 9973.241123304424 253 1 1 253 253
119	1997990 7430 189 99133 22.157866916913 9990.421957350433 251 1 1 251 251
120	2005420 7880 191 98941 22.201606371005 9968.793464573471 266 1 1 266 266
121	2013300 21333 194 99136 22.257866916913 9990.521957350433 473 0.099999999998545 0.16750914042177 47.444782353787 4.7668878143091
122	2034633 24204 196 99120 22.301606371005 9990.148077149955 538 0.099999999998545 0.15114927481227 54.031706389562 5.4362079604593
123	2058837 6840 197 98373 22.651603551198 9916.541434983684 231 1 1 231 231
124	2065677 7499 201 99189 23.117594212154 9996.727910120343 253 1 1 253 253
125	2073176 22369 204 99192 23.217594212154 9996.827910120343 497 0.099999999998545 0.19129452530524 49.889114284744 5.0244090342194
126	2095545 7084 205 97833 23.404779629557 9858.977956502803 239 1 1 239 239
127	2102629 7531 211 99149 23.574070050879 9992.829674654064 254 1 1 254 254
128	2110160 22728 216 99152 23.674070050879 9992.929674654064 505 0.099999999998545 0.19795441302085 50.985856033904 5.1838848410831
129	2132888 7826 225 97549 24.142958068726 9830.834611933898 264 1 1 264 264
130	2140714 7085 227 99057 24.221617337831 9982.833272019833 239 1 1 239 239
131	2147799 7567 241 99013 25.173544223505 9978.582231197142 255 1 1 255 255
132	2155366 22957 244 99048 25.273544223505 9981.469724825493 509 0.099999999998545 0.13367733479072 50.992469576826 5.1110573870221
133	2178323 8704 245 99037 25.359388990519 9980.886179092497 294 1 1 294 294
134	2187027 7432 249 98957 25.482504763199 9970.206964790308 251 1 1 251 251
135	2194459 23173 252 99092 25.582504763199 9987.649122327999 515 0.099999999998545 0.19162879391115 51.772994669868 5.2214824090588
136	2217632 8067 253 99113 25.984675449457 9990.048077149955 272 1 1 272 272
137	2225699 7334 255 98883 26.045132579558 9966.104870495519 247 1 1 247 247
138	2233033 7441 261 99145 26.228041123067 9992.19029764545 251 1 1 251 251
139	2240474 8079 265 98997 26.356990913402 9975.889240837011 272 1 1 272 272
140	2248553 7341 269 99061 26.910220162014 9983.436781929749 248 1 1 248 248
141	2255894 6591 281 98981 28.424732020817 9974.196016826321 222 1 1 222 222
142	2262485 7380 293 99153 30.136654979855 9994.074619234545 249 1 1 249 249
143	2269865 22408 296 99158 30.236654979855 9994.174619234545 497 0.099999999998545 0.199373728762 49.884310988748 5.0194599633312
144	2292273 6908 301 98969 31.584125789635 9972.38088707458 233 1 1 233 233
145	2299181 8373 313 99069 32.263353825185 9984.492289351598 282 1 1 282 282
146	2307554 24482 316 99072 32.363353825185 9984.592289351598 543 0.099999999998545 0.18497772053342 54.569555539654 5.5031555896364
147	2332036 7777 317 98953 32.466427183572 9969.908405843999 262 1 1 262 262
148	2339813 23504 320 99004 32.566427183572 9976.055210665808 521 0.099999999998545 0.17537111664205 52.241731685658 5.2465039347487
149	2363317 7123 337 99115 35.394815964888 9990.11807412227 240 1 1 240 240
150	2370440 7588 357 99185 37.456473337418 9996.501166250001 256 1 1 256 256
151	2378028 21426 360 99188 37.556473337418 9996.601166250001 476 0.099999999998545 0.19098563904117 47.779175214539 4.8080387144735
152	2399454 6534 365 99065 38.999676733641 9983.793156876317 220 1 1 220 220
153	2405988 7524 389 97947 40.052609541518 9871.028315679561 253 1 1 253 253
154	2413512 22914 392 99076 40.152609541518 9986.562686226817 507 0.099999999998545 0.18905117014037 51.024348065767 5.1559398949349
155	2436426 7291 407 98513 41.812338459188 9930.973934392158 246 1 1 246 246
156	2443717 22323 412 98628 41.912338459188 9941.776306480286 495 0.099999999998545 0.19618893579991 49.723306675897 5.0093657454545
157	2466040 8042 417 98397 42.093945925536 9917.931621316862 271 1 1 271 271
158	2474082 22827 422 99182 42.193945925536 9996.199086575689 507 0.099999999998545 0.19274671891071 50.978020495258 5.1453461483094
159	2496909 6577 453 99085 46.969285331913 9987.092463379813 222 1 1 222 222
160	2503486 7221 455 98413 46.986044818751 9920.79517692426 244 1 1 244 244
161	2510707 6931 473 98661 49.059329604428 9945.271298258848 234 1 1 234 234
162	2517638 22081 476 98722 49.159329604428 9952.811255452232 491 0.099999999998545 0.19805584688856 49.198055846893 4.9392261184876
163	2539719 7289 501 98965 52.123435151879 9972.026584065267 246 1 1 246 246
164	2547008 6999 503 99175 52.140370832412 9996.099086575689 236 1 1 236 236
165	2554007 7047 523 98145 53.929556758937 9893.137827037849 237 1 1 237 237
166	2561054 21888 532 98452 54.029556758937 9926.496825802517 485 0.099999999998545 0.14290105398413 48.574932526463 4.8678530209547
167	2582942 7222 555 98985 54.833920313446 9974.511411404623 243 1 1 243 243
168	2590164 19708 560 98988 54.933920313446 9974.611411404623 437 0.099999999998545 0.12262744363943 43.741138440282 4.3790674606554
169	2609872 7547 567 99051 55.97957222567 9981.859425766796 254 1 1 254 254
170	2617419 22507 572 99056 56.07957222567 9981.959425766796 499 0.099999999998545 0.10836171692335 49.908361716931 4.9917422616961
171	2639926 5740 581 97557 57.623638437397 9831.217214905401 194 1 1 194 194
172	2645666 7822 593 99089 58.357155538695 9987.549122327999 264 1 1 264 264
173	2653488 7612 617 98715 60.744224204781 9952.711255452232 257 1 1 257 257
174	2661100 7744 641 98893 62.513926803029 9966.323604055734 261 1 1 261 261
175	2668844 6836 643 98421 62.518268136654 9921.567884050178 231 1 1 231 231
176	2675680 7413 649 98133 63.075007306884 9892.354277959623 250 1 1 250 250
177	2683093 7556 689 99073 66.750302148377 9986.462686226817 254 1 1 254 254
178	2690649 6912 701 99093 69.004541745721 9987.896369777813 233 1 1 233 233
179	2697561 21474 704 99096 69.104541745721 9987.996369777813 476 0.099999999998545 0.19478115750906 47.876249594314 4.8342869594105
180	2719035 7851 729 99137 70.232672244527 9990.750088811489 265 1 1 265 265
181	2726886 7514 753 99193 74.313939887995 9997.29731205588 253 1 1 253 253
182	2734400 7349 793 98447 78.001283024032 9926.396825802517 248 1 1 248 248