version 3
run Uniform-18-20260105-17:01:01-25051
attr configname Uniform
attr datetime 20260105-17:01:01
attr datetimef 20260105-170101
attr experiment Uniform
attr inifile omnetpp.ini
attr iterationvars "$N=50, $p=0.8"
attr iterationvarsd N=50/p=0.8
attr iterationvarsf N=50,p=0.8-
attr measurement "$N=50, $p=0.8"
attr network progetto.DatabaseNetwork
attr processid 25051
attr repetition 3
attr replication #3
attr resultdir results
attr runnumber 18
attr seedset 3
itervar N 50
itervar p 0.8
config description "Uniform distribution - varia N e p"
config *.user[*].tableDistribution "\"uniform\""
config *.numUsers 50
config *.user[*].readProbability 0.8
config network progetto.DatabaseNetwork
config sim-time-limit 10000s
config cpu-time-limit 3600s
config repeat 5
config seed-set 3
config output-vector-file "results/Uniform-$N=50, $p=0.8-3.vec"
config output-scalar-file "results/Uniform-$N=50, $p=0.8-3.sca"
config result-dir results
config **.vector-recording true
config **.scalar-recording true
config *.numTables 20
config *.user[*].lambda 0.05
config *.user[*].serviceTime 0.1s

vector 0 DatabaseNetwork.user[0] AccessInterval ETV
vector 1 DatabaseNetwork.user[1] AccessInterval ETV
vector 2 DatabaseNetwork.user[2] AccessInterval ETV
vector 3 DatabaseNetwork.user[3] AccessInterval ETV
vector 4 DatabaseNetwork.user[4] AccessInterval ETV
vector 5 DatabaseNetwork.user[5] AccessInterval ETV
vector 6 DatabaseNetwork.user[6] AccessInterval ETV
vector 7 DatabaseNetwork.user[7] AccessInterval ETV
vector 8 DatabaseNetwork.user[8] AccessInterval ETV
vector 9 DatabaseNetwork.user[9] AccessInterval ETV
vector 10 DatabaseNetwork.user[10] AccessInterval ETV
vector 11 DatabaseNetwork.user[11] AccessInterval ETV
vector 12 DatabaseNetwork.user[12] AccessInterval ETV
vector 13 DatabaseNetwork.user[13] AccessInterval ETV
vector 14 DatabaseNetwork.user[14] AccessInterval ETV
vector 15 DatabaseNetwork.user[15] AccessInterval ETV
vector 16 DatabaseNetwork.user[16] AccessInterval ETV
vector 17 DatabaseNetwork.user[17] AccessInterval ETV
vector 18 DatabaseNetwork.user[18] AccessInterval ETV
vector 19 DatabaseNetwork.user[19] AccessInterval ETV
vector 20 DatabaseNetwork.user[20] AccessInterval ETV
vector 21 DatabaseNetwork.user[21] AccessInterval ETV
vector 22 DatabaseNetwork.user[22] AccessInterval ETV
vector 23 DatabaseNetwork.user[23] AccessInterval ETV
vector 24 DatabaseNetwork.user[24] AccessInterval ETV
vector 25 DatabaseNetwork.user[25] AccessInterval ETV
vector 26 DatabaseNetwork.user[26] AccessInterval ETV
vector 27 DatabaseNetwork.user[27] AccessInterval ETV
vector 28 DatabaseNetwork.user[28] AccessInterval ETV
vector 29 DatabaseNetwork.user[29] AccessInterval ETV
vector 30 DatabaseNetwork.user[30] AccessInterval ETV
vector 31 DatabaseNetwork.user[31] AccessInterval ETV
vector 32 DatabaseNetwork.user[32] AccessInterval ETV
vector 33 DatabaseNetwork.user[33] AccessInterval ETV
vector 34 DatabaseNetwork.user[34] AccessInterval ETV
vector 35 DatabaseNetwork.user[35] AccessInterval ETV
vector 36 DatabaseNetwork.user[36] AccessInterval ETV
vector 37 DatabaseNetwork.user[37] AccessInterval ETV
vector 38 DatabaseNetwork.user[38] AccessInterval ETV
vector 39 DatabaseNetwork.user[39] AccessInterval ETV
vector 40 DatabaseNetwork.user[40] AccessInterval ETV
vector 41 DatabaseNetwork.user[41] AccessInterval ETV
vector 42 DatabaseNetwork.user[42] AccessInterval ETV
vector 43 DatabaseNetwork.user[43] AccessInterval ETV
vector 44 DatabaseNetwork.user[44] AccessInterval ETV
vector 45 DatabaseNetwork.user[45] AccessInterval ETV
vector 46 DatabaseNetwork.user[46] AccessInterval ETV
vector 47 DatabaseNetwork.user[47] AccessInterval ETV
vector 48 DatabaseNetwork.user[48] AccessInterval ETV
vector 49 DatabaseNetwork.user[49] AccessInterval ETV
vector 50 DatabaseNetwork.user[11] WriteAccesses ETV
vector 51 DatabaseNetwork.user[11] WaitTime ETV
vector 52 DatabaseNetwork.user[32] ReadAccesses ETV
vector 53 DatabaseNetwork.user[32] WaitTime ETV
vector 54 DatabaseNetwork.user[20] ReadAccesses ETV
vector 55 DatabaseNetwork.user[20] WaitTime ETV
vector 56 DatabaseNetwork.user[13] WriteAccesses ETV
vector 57 DatabaseNetwork.user[13] WaitTime ETV
vector 58 DatabaseNetwork.user[16] ReadAccesses ETV
vector 59 DatabaseNetwork.user[16] WaitTime ETV
vector 60 DatabaseNetwork.user[1] ReadAccesses ETV
vector 61 DatabaseNetwork.user[1] WaitTime ETV
vector 62 DatabaseNetwork.user[17] ReadAccesses ETV
vector 63 DatabaseNetwork.user[17] WaitTime ETV
vector 64 DatabaseNetwork.user[5] ReadAccesses ETV
vector 65 DatabaseNetwork.user[12] ReadAccesses ETV
vector 66 DatabaseNetwork.user[5] WaitTime ETV
vector 67 DatabaseNetwork.user[12] WaitTime ETV
vector 68 DatabaseNetwork.user[21] ReadAccesses ETV
vector 69 DatabaseNetwork.user[21] WaitTime ETV
vector 70 DatabaseNetwork.user[46] ReadAccesses ETV
vector 71 DatabaseNetwork.user[46] WaitTime ETV
vector 72 DatabaseNetwork.user[14] ReadAccesses ETV
vector 73 DatabaseNetwork.user[14] WaitTime ETV
vector 74 DatabaseNetwork.user[25] WriteAccesses ETV
vector 75 DatabaseNetwork.user[25] WaitTime ETV
vector 76 DatabaseNetwork.user[15] ReadAccesses ETV
vector 77 DatabaseNetwork.user[15] WaitTime ETV
vector 78 DatabaseNetwork.user[36] ReadAccesses ETV
vector 79 DatabaseNetwork.user[36] WaitTime ETV
vector 80 DatabaseNetwork.user[45] WriteAccesses ETV
vector 81 DatabaseNetwork.user[26] ReadAccesses ETV
vector 82 DatabaseNetwork.user[45] WaitTime ETV
vector 83 DatabaseNetwork.user[26] WaitTime ETV
vector 84 DatabaseNetwork.user[40] ReadAccesses ETV
vector 85 DatabaseNetwork.user[40] WaitTime ETV
vector 86 DatabaseNetwork.user[4] ReadAccesses ETV
vector 87 DatabaseNetwork.user[4] WaitTime ETV
vector 88 DatabaseNetwork.user[41] WriteAccesses ETV
vector 89 DatabaseNetwork.user[41] WaitTime ETV
vector 90 DatabaseNetwork.user[11] ReadAccesses ETV
vector 91 DatabaseNetwork.user[45] ReadAccesses ETV
vector 92 DatabaseNetwork.user[27] ReadAccesses ETV
vector 93 DatabaseNetwork.user[27] WaitTime ETV
vector 94 DatabaseNetwork.user[37] ReadAccesses ETV
vector 95 DatabaseNetwork.user[37] WaitTime ETV
vector 96 DatabaseNetwork.user[38] ReadAccesses ETV
vector 97 DatabaseNetwork.user[38] WaitTime ETV
vector 98 DatabaseNetwork.user[25] ReadAccesses ETV
vector 99 DatabaseNetwork.user[9] ReadAccesses ETV
vector 100 DatabaseNetwork.user[9] WaitTime ETV
vector 101 DatabaseNetwork.user[44] ReadAccesses ETV
vector 102 DatabaseNetwork.user[18] ReadAccesses ETV
vector 103 DatabaseNetwork.user[44] WaitTime ETV
vector 104 DatabaseNetwork.user[18] WaitTime ETV
vector 105 DatabaseNetwork.user[23] ReadAccesses ETV
vector 106 DatabaseNetwork.user[47] WriteAccesses ETV
vector 107 DatabaseNetwork.user[23] WaitTime ETV
vector 108 DatabaseNetwork.user[22] WriteAccesses ETV
vector 109 DatabaseNetwork.user[47] WaitTime ETV
vector 110 DatabaseNetwork.user[22] WaitTime ETV
vector 111 DatabaseNetwork.user[29] ReadAccesses ETV
vector 112 DatabaseNetwork.user[29] WaitTime ETV
vector 113 DatabaseNetwork.user[6] ReadAccesses ETV
vector 114 DatabaseNetwork.user[6] WaitTime ETV
vector 115 DatabaseNetwork.user[48] ReadAccesses ETV
vector 116 DatabaseNetwork.user[48] WaitTime ETV
vector 117 DatabaseNetwork.user[0] ReadAccesses ETV
vector 118 DatabaseNetwork.user[39] ReadAccesses ETV
vector 119 DatabaseNetwork.user[0] WaitTime ETV
vector 120 DatabaseNetwork.user[39] WaitTime ETV
vector 121 DatabaseNetwork.user[34] ReadAccesses ETV
vector 122 DatabaseNetwork.user[34] WaitTime ETV
vector 123 DatabaseNetwork.user[7] ReadAccesses ETV
vector 124 DatabaseNetwork.user[7] WaitTime ETV
vector 125 DatabaseNetwork.user[43] WriteAccesses ETV
vector 126 DatabaseNetwork.user[43] WaitTime ETV
vector 127 DatabaseNetwork.user[30] ReadAccesses ETV
vector 128 DatabaseNetwork.user[30] WaitTime ETV
vector 129 DatabaseNetwork.user[16] WriteAccesses ETV
vector 130 DatabaseNetwork.user[24] WriteAccesses ETV
vector 131 DatabaseNetwork.user[24] WaitTime ETV
vector 132 DatabaseNetwork.user[44] WriteAccesses ETV
vector 133 DatabaseNetwork.user[28] ReadAccesses ETV
vector 134 DatabaseNetwork.user[12] WriteAccesses ETV
vector 135 DatabaseNetwork.user[28] WaitTime ETV
vector 136 DatabaseNetwork.user[42] ReadAccesses ETV
vector 137 DatabaseNetwork.user[42] WaitTime ETV
vector 138 DatabaseNetwork.user[19] ReadAccesses ETV
vector 139 DatabaseNetwork.user[19] WaitTime ETV
vector 140 DatabaseNetwork.user[2] WriteAccesses ETV
vector 141 DatabaseNetwork.user[2] WaitTime ETV
vector 142 DatabaseNetwork.user[42] WriteAccesses ETV
vector 143 DatabaseNetwork.user[32] WriteAccesses ETV
vector 144 DatabaseNetwork.user[49] ReadAccesses ETV
vector 145 DatabaseNetwork.user[43] ReadAccesses ETV
vector 146 DatabaseNetwork.user[49] WaitTime ETV
vector 147 DatabaseNetwork.user[33] ReadAccesses ETV
vector 148 DatabaseNetwork.user[33] WaitTime ETV
vector 149 DatabaseNetwork.user[29] WriteAccesses ETV
vector 150 DatabaseNetwork.user[41] ReadAccesses ETV
vector 151 DatabaseNetwork.user[18] WriteAccesses ETV
vector 152 DatabaseNetwork.user[3] ReadAccesses ETV
vector 153 DatabaseNetwork.user[3] WaitTime ETV
vector 154 DatabaseNetwork.user[38] WriteAccesses ETV
vector 155 DatabaseNetwork.user[36] WriteAccesses ETV
vector 156 DatabaseNetwork.user[33] WriteAccesses ETV
vector 157 DatabaseNetwork.user[8] ReadAccesses ETV
vector 158 DatabaseNetwork.user[8] WaitTime ETV
vector 159 DatabaseNetwork.user[10] WriteAccesses ETV
vector 160 DatabaseNetwork.user[10] WaitTime ETV
vector 161 DatabaseNetwork.user[13] ReadAccesses ETV
vector 162 DatabaseNetwork.user[31] ReadAccesses ETV
vector 163 DatabaseNetwork.user[31] WaitTime ETV
vector 164 DatabaseNetwork.user[47] ReadAccesses ETV
vector 165 DatabaseNetwork.user[17] WriteAccesses ETV
vector 166 DatabaseNetwork.user[26] WriteAccesses ETV
vector 167 DatabaseNetwork.user[22] ReadAccesses ETV
vector 168 DatabaseNetwork.user[2] ReadAccesses ETV
vector 169 DatabaseNetwork.user[6] WriteAccesses ETV
vector 170 DatabaseNetwork.user[4] WriteAccesses ETV
vector 171 DatabaseNetwork.user[15] WriteAccesses ETV
vector 172 DatabaseNetwork.user[9] WriteAccesses ETV
vector 173 DatabaseNetwork.user[35] ReadAccesses ETV
vector 174 DatabaseNetwork.user[35] WaitTime ETV
vector 175 DatabaseNetwork.user[19] WriteAccesses ETV
vector 176 DatabaseNetwork.user[10] ReadAccesses ETV
vector 177 DatabaseNetwork.user[3] WriteAccesses ETV
vector 178 DatabaseNetwork.user[0] WriteAccesses ETV
vector 179 DatabaseNetwork.user[28] WriteAccesses ETV
vector 180 DatabaseNetwork.user[46] WriteAccesses ETV
vector 181 DatabaseNetwork.user[30] WriteAccesses ETV
vector 182 DatabaseNetwork.user[49] WriteAccesses ETV
vector 183 DatabaseNetwork.user[24] ReadAccesses ETV
vector 184 DatabaseNetwork.user[48] WriteAccesses ETV
vector 185 DatabaseNetwork.user[35] WriteAccesses ETV
vector 186 DatabaseNetwork.user[20] WriteAccesses ETV
vector 187 DatabaseNetwork.user[14] WriteAccesses ETV
vector 188 DatabaseNetwork.user[39] WriteAccesses ETV
vector 189 DatabaseNetwork.user[1] WriteAccesses ETV
vector 190 DatabaseNetwork.user[34] WriteAccesses ETV
vector 191 DatabaseNetwork.user[7] WriteAccesses ETV
vector 192 DatabaseNetwork.user[31] WriteAccesses ETV
vector 193 DatabaseNetwork.user[40] WriteAccesses ETV
vector 194 DatabaseNetwork.user[21] WriteAccesses ETV
vector 195 DatabaseNetwork.user[5] WriteAccesses ETV
vector 196 DatabaseNetwork.user[8] WriteAccesses ETV
vector 197 DatabaseNetwork.user[23] WriteAccesses ETV
vector 198 DatabaseNetwork.user[37] WriteAccesses ETV
vector 199 DatabaseNetwork.user[27] WriteAccesses ETV
0	0	0	16.005647817852
0	197	16.005647817852	13.275427062478
0	361	29.28107488033	38.514593157487
0	715	67.795668037817	17.088371147652
0	891	84.884039185469	0.81215187236989
0	911	85.696191057839	8.913717421958
0	1019	94.609908479797	20.702445682713
0	1225	115.31235416251	2.9532786989428
0	1265	118.265632861453	30.560877454631
0	1533	148.826510316084	3.7982186055441
0	1581	152.624728921628	68.877086393052
0	2265	221.50181531468	25.437435878178
0	2493	246.939251192858	25.950621120205
0	2809	272.889872313063	4.1137429357165
0	2879	277.00361524878	12.347184408252
0	3011	289.350799657032	10.24991179774
0	3095	299.600711454772	9.3959411059375
0	3217	308.99665256071	40.29657889914
0	3653	349.29323145985	10.899335526206
0	3749	360.192566986056	18.747501216508
0	3901	378.940068202564	52.096404634032
0	4419	431.036472836596	0.54224373022983
0	4429	431.578716566826	2.3273657863003
0	4453	433.906082353126	1.094017575437
0	4469	435.000099928563	14.01464304247
0	4585	449.014742971033	17.128028103755
0	4817	466.142771074788	7.2349331628265
0	4903	473.377704237615	4.2076205105573
0	4957	477.585324748172	6.524222985968
0	5057	484.10954773414	23.892502734925
0	5313	508.002050469065	1.6265959777476
0	5337	509.628646446813	3.9580717782533
0	5361	513.586718225066	38.327654005957
0	5717	551.914372231023	1.122720813582
0	5733	553.037093044605	10.739205124468
0	5845	563.776298169073	2.0373676834666
0	5853	565.81366585254	1.7974335079576
0	5861	567.611099360498	19.37091581748
0	5993	586.982015177978	15.605216006409
0	6141	602.587231184387	17.081620693877
0	6315	619.668851878264	2.0950941575851
0	6349	621.763946035849	43.113064608258
0	6765	664.877010644107	2.6466417182623
0	6789	667.523652362369	6.9323173878795
0	6861	674.455969750249	3.7849913540224
0	6889	678.240961104271	5.6964497734853
0	6937	683.937410877756	18.036972532111
0	7093	701.974383409867	11.755736384446
0	7245	713.730119794313	17.243386771131
0	7401	730.973506565444	5.9268168258845
0	7433	736.900323391329	6.0576035281867
0	7485	742.957926919516	68.514908240882
0	8181	811.472835160398	1.86564329535
0	8205	813.338478455748	11.560086153091
0	8333	824.898564608839	12.99562672509
0	8473	837.894191333929	3.8538889127926
0	8519	841.748080246722	2.6951170280513
0	8537	844.443197274773	3.4539559811023
0	8581	847.897153255875	5.0386622262694
0	8637	852.935815482144	14.324266985338
0	8801	867.260082467482	9.1841087516077
0	8873	876.44419121909	50.678823385114
0	9353	927.123014604204	34.383540289645
0	9705	961.506554893849	20.57869225846
0	9917	982.085247152309	17.372527219573
0	10065	999.457774371882	51.830412845834
0	10689	1051.288187217716	16.408916404656
0	10857	1067.697103622372	2.5542697118784
0	10889	1070.25137333425	22.407489525965
0	11111	1092.658862860215	20.341693958347
0	11305	1113.000556818562	6.3126100731295
0	11389	1119.313166891691	18.370309374394
0	11559	1137.683476266085	23.529251096195
0	11761	1161.21272736228	33.333276559274
0	12149	1194.546003921554	6.2591694791868
0	12205	1200.805173400741	7.2052608584266
0	12249	1208.010434259168	22.773428718797
0	12543	1230.783862977965	13.725765416385
0	12661	1244.50962839435	12.810786550109
0	12797	1257.320414944459	4.9284930883546
0	12867	1262.248908032814	9.9551474628585
0	12957	1272.204055495673	25.065426261508
0	13177	1297.269481757181	12.534161147536
0	13349	1309.803642904717	6.7411728595204
0	13445	1316.544815764237	25.675787518927
0	13673	1342.220603283164	0.46241018576817
0	13679	1342.683013468932	28.918748748506
0	13953	1371.601762217438	4.154468217183
0	14013	1375.756230434621	17.713610632606
0	14219	1393.469841067227	40.888557974591
0	14677	1434.358399041818	15.51968077721
0	14827	1449.878079819028	4.5590286896223
0	14853	1454.43710850865	63.772511318962
0	15535	1518.209619827612	4.1267435674292
0	15573	1522.336363395041	33.786711004181
0	15945	1556.123074399222	20.906268588709
0	16265	1577.029342987931	3.6278208762914
0	16303	1580.657163864222	3.7597097503887
0	16361	1584.416873614611	56.860356354059
0	16881	1641.27722996867	2.4415915048114
0	16909	1643.718821473481	41.896354038185
0	17293	1685.615175511666	34.138747422677
0	17649	1719.753922934343	33.515697093692
0	17905	1753.269620028035	22.005220447482
0	18145	1775.274840475517	48.33590441074
0	18691	1823.610744886257	38.722880314433
0	18989	1862.33362520069	26.971880676554
0	19241	1889.305505877244	5.0887611352505
0	19281	1894.394267012495	29.048834061028
0	19529	1923.443101073523	52.470640406665
0	20111	1975.913741480188	26.275324877529
0	20353	2002.189066357717	6.4498058088503
0	20421	2008.638872166567	41.343449255982
0	20865	2049.982321422549	27.2291884626
0	21131	2077.211509885149	5.2260627268526
0	21205	2082.437572612002	5.2229585106276
0	21265	2087.66053112263	8.552198357832
0	21335	2096.212729480462	14.969699601601
0	21497	2111.182429082063	31.549522150559
0	21803	2142.731951232622	0.38446866040511
0	21809	2143.116419893027	10.549012515338
0	21897	2153.665432408365	4.7609728333628
0	21939	2158.426405241728	42.910912589222
0	22361	2201.33731783095	24.829302157256
0	22699	2226.166619988206	8.5285875278028
0	22805	2234.695207516009	12.358985745619
0	22927	2247.054193261628	2.5055962435365
0	22979	2249.559789505164	4.5736081247019
0	23013	2254.133397629866	7.909282293927
0	23081	2262.042679923793	39.120650967275
0	23481	2301.163330891068	75.225539646592
0	24297	2376.38887053766	37.622480684944
0	24657	2414.011351222604	30.012020840483
0	24941	2444.023372063087	11.643420289086
0	25069	2455.666792352173	3.2098121638283
0	25113	2458.876604516001	39.088158323453
0	25543	2497.964762839454	84.018490823038
0	26377	2581.983253662492	1.0135368612134
0	26397	2582.996790523705	41.422782781425
0	26809	2624.41957330513	3.6707811622401
0	26841	2628.09035446737	2.3653342259287
0	26869	2630.455688693299	72.542191745842
0	27585	2702.997880439141	1.7701324513876
0	27605	2704.768012890529	16.168073052783
0	27749	2720.936085943312	0.27221710928449
0	27757	2721.208303052596	0.75153071041126
0	27769	2721.959833763007	6.6463594536809
0	27837	2728.606193216688	15.246504094114
0	27971	2743.852697310802	6.114777274882
0	28041	2749.967474585684	10.722582165099
0	28109	2760.690056750783	8.103004130381
0	28225	2768.793060881164	12.180322153463
0	28319	2780.973383034627	22.088027769728
0	28521	2803.061410804355	23.549974000279
0	28811	2826.611384804634	17.514878052237
0	29013	2844.126262856871	73.572840297987
0	29651	2917.699103154858	12.665227723773
0	29769	2930.364330878631	42.201384874441
0	30173	2972.565715753072	50.463244277163
0	30613	3023.028960030235	0.088627221207227
0	30615	3023.117587251442	101.69964309615
0	31689	3124.817230347594	41.215229558445
0	32061	3166.032459906039	27.932620375348
0	32381	3193.965080281387	21.314074785988
0	32569	3215.279155067375	9.6949198947485
0	32671	3224.974074962124	30.747535228664
0	33005	3255.721610190788	6.9637815323773
0	33069	3262.685391723165	0.76510384024396
0	33083	3263.450495563409	7.1380973948403
0	33145	3270.588592958249	9.4249225376414
0	33255	3280.01351549589	21.704209476145
0	33453	3301.717724972035	3.5684382484643
0	33497	3305.286163220499	17.043129502765
0	33617	3322.329292723264	1.2851638967289
0	33629	3323.614456619993	4.2556603055652
0	33687	3327.870116925558	29.072636108054
0	33969	3356.942753033612	31.532930168739
0	34301	3388.475683202351	2.1794319459258
0	34325	3390.655115148277	6.2848681786176
0	34379	3396.939983326895	3.8719328143064
0	34429	3400.811916141201	22.453213210976
0	34651	3423.265129352177	38.977298600578
0	35049	3462.242427952755	18.474342602281
0	35273	3480.716770555036	11.765497238932
0	35377	3492.482267793968	21.271154633214
0	35577	3513.753422427182	3.7528046093303
0	35613	3517.506227036512	6.0849313913581
0	35677	3523.59115842787	11.500271764833
0	35793	3535.091430192703	9.7437315293045
0	35901	3544.835161722007	21.939456737508
0	36113	3566.774618459515	59.607141320637
0	36719	3626.381759780152	7.7749275286257
0	36787	3634.156687308778	14.536557818745
0	36885	3648.693245127523	19.89237919599
0	37081	3668.585624323513	0.08688522029067
0	37083	3668.672509543804	6.2650687104436
0	37137	3674.937578254248	12.343967124816
0	37257	3687.281545379064	97.971389959593
0	38225	3785.252935338657	1.0219411168275
0	38233	3786.274876455485	17.924379494886
0	38405	3804.199255950371	1.2613920592274
0	38417	3805.460648009598	0.56744020311759
0	38427	3806.028088212716	19.27095308761
0	38619	3825.299041300326	13.265640903609
0	38753	3838.564682203935	9.2962529787718
0	38853	3847.860935182707	41.532094969704
0	39297	3889.393030152411	8.7426821186288
0	39397	3898.13571227104	45.110956863397
0	39795	3943.246669134437	6.6597450313748
0	39857	3949.906414165812	12.441614375195
0	39985	3962.348028541007	0.89460049303152
0	39989	3963.242629034039	50.96094663307
0	40457	4014.203575667109	25.357495069716
0	40737	4039.561070736825	38.833951458919
0	41161	4078.395022195744	71.622501376488
0	41953	4150.017523572232	2.5610508017531
0	41981	4152.578574373985	22.534789232874
0	42205	4175.113363606859	52.411594857803
0	42795	4227.524958464662	60.41517972339
0	43369	4287.940138188052	1.8879887504032
0	43395	4289.828126938455	39.571108128703
0	43849	4329.399235067158	27.858646410172
0	44093	4357.25788147733	20.083738129007
0	44269	4377.341619606337	94.400674490375
0	45277	4471.742294096712	27.902943263286
0	45585	4499.645237359998	36.003302799039
0	45973	4535.648540159037	10.118987873113
0	46083	4545.76752803215	9.6727707180683
0	46197	4555.440298750218	29.364603415224
0	46557	4584.804902165442	6.8040528567876
0	46623	4591.60895502223	57.44055746376
0	47205	4649.04951248599	20.915422889847
0	47365	4669.964935375837	24.673076934231
0	47681	4694.638012310068	58.954947871139
0	48239	4753.592960181207	10.52524794395
0	48371	4764.118208125157	0.94231272663103
0	48381	4765.060520851788	13.883945266553
0	48513	4778.944466118341	11.456855578821
0	48621	4790.401321697162	24.176289789233
0	48869	4814.577611486395	4.1929363293438
0	48913	4818.770547815739	12.840690210828
0	49033	4831.611238026567	3.5494331421286
0	49077	4835.160671168696	3.7460494969478
0	49127	4838.906720665644	16.668907284061
0	49261	4855.575627949705	12.652010817507
0	49403	4868.227638767212	12.570309005023
0	49529	4880.797947772235	37.313460386579
0	49865	4918.111408158814	13.067647081935
0	49989	4931.179055240749	8.836861001385
0	50055	4940.015916242134	1.7999525720647
0	50085	4941.815868814199	1.0302639402173
0	50093	4942.846132754416	1.0688868883536
0	50125	4943.91501964277	6.2645982995104
0	50177	4950.17961794228	4.1717829777474
0	50213	4954.351400920027	3.2373120515084
0	50253	4957.588712971535	10.954804784498
0	50357	4968.543517756033	28.814876134561
0	50613	4997.358393890594	17.288352850225
0	50769	5014.646746740819	27.612655517628
0	51041	5042.259402258447	8.1941574034203
0	51117	5050.453559661867	41.634943179958
0	51503	5092.088502841825	33.391144276913
0	51797	5125.479647118738	2.2556828956544
0	51813	5127.735330014392	0.98166143940534
0	51821	5128.716991453797	4.5003706931819
0	51865	5133.217362146979	29.152548216028
0	52125	5162.369910363007	7.9992066269375
0	52185	5170.369116989945	16.42629816885
0	52385	5186.795415158795	17.117169676307
0	52545	5203.912584835102	46.264762078677
0	52949	5250.177346913779	19.012664977365
0	53165	5269.190011891144	26.587172235319
0	53409	5295.777184126463	5.1706426541732
0	53465	5300.947826780636	12.770176794619
0	53573	5313.718003575255	2.3355675148233
0	53595	5316.053571090078	9.9501610725034
0	53709	5326.003732162581	11.826078127854
0	53833	5337.829810290435	0.65667610236988
0	53837	5338.486486392805	21.917127845202
0	54043	5360.403614238007	32.463024298019
0	54355	5392.866638536026	33.198367016317
0	54601	5426.065005552343	17.091692504604
0	54777	5443.156698056947	18.251629515645
0	55049	5461.408327572592	4.5103560476314
0	55083	5465.918683620223	7.084134223686
0	55181	5473.002817843909	34.466235326949
0	55573	5507.469053170858	4.3252476397958
0	55647	5511.794300810654	1.1018045022382
0	55661	5512.896105312892	35.368121863501
0	55981	5548.264227176393	9.3140762576844
0	56077	5557.578303434077	9.5208013217378
0	56205	5567.099104755815	37.058964731972
0	56533	5604.158069487787	6.6040506384132
0	56593	5610.7621201262	11.061365876566
0	56689	5621.823486002766	10.400258251327
0	56773	5632.223744254093	9.0578873603006
0	56873	5641.281631614394	4.4304726042743
0	56923	5645.712104218668	5.5253083695861
0	56971	5651.237412588254	1.8012328673559
0	56993	5653.03864545561	9.9865457182898
0	57073	5663.0251911739	40.581400183953
0	57417	5703.606591357853	1.6986168950283
0	57437	5705.305208252881	81.919944152963
0	58201	5787.225152405844	0.61332957979325
0	58213	5787.838481985637	34.438596792285
0	58577	5822.277078777922	1.7255833202504
0	58607	5824.002662098172	48.144669492037
0	59061	5872.147331590209	36.560082576939
0	59397	5908.707414167148	1.0258073919558
0	59421	5909.733221559104	34.37805507369
0	59813	5944.111276632794	25.458056783825
0	59997	5969.569333416619	25.900746654637
0	60229	5995.470080071256	26.478133539791
0	60539	6021.948213611047	29.079155374758
0	60829	6051.027368985805	10.489851973061
0	60899	6061.517220958866	0.23727152817946
0	60909	6061.754492487045	103.75294364299
0	61997	6165.507436130035	23.048897925776
0	62229	6188.556334055811	12.547260507732
0	62361	6201.103594563543	39.81533069034
0	62729	6240.918925253883	16.920573312866
0	62909	6257.839498566749	8.0352840885812
0	62985	6265.87478265533	29.292594278183
0	63267	6295.167376933513	21.868696927741
0	63525	6317.036073861254	56.719765188102
0	64085	6373.755839049356	6.9254232117828
0	64129	6380.681262261139	23.735685145872
0	64385	6404.416947407011	16.917793237804
0	64541	6421.334740644815	1.4024092015481
0	64553	6422.737149846363	6.9697728160785
0	64661	6429.706922662441	12.675975517173
0	64753	6442.382898179614	50.200138650058
0	65257	6492.583036829672	33.996786378515
0	65575	6526.579823208187	24.238139243376
0	65785	6550.817962451563	4.9165904359607
0	65849	6555.734552887524	7.2713888586023
0	65907	6563.005941746126	5.3757759378296
0	65969	6568.381717683956	4.6672736515766
0	66037	6573.048991335533	3.6853388721785
0	66079	6576.734330207711	5.0851396148101
0	66125	6581.819469822521	25.213702856614
0	66317	6607.033172679135	8.9083076076911
0	66433	6615.941480286826	46.489296189298
0	66841	6662.430776476124	8.4625883756117
0	66937	6670.893364851736	11.095129637811
0	67045	6681.988494489547	0.38981913010298
0	67049	6682.37831361965	11.069705524445
0	67225	6693.448019144095	34.771717284665
0	67513	6728.21973642876	3.582005397897
0	67543	6731.801741826657	8.1295773677448
0	67609	6739.931319194402	23.401498980493
0	67829	6763.332818174895	18.969886259721
0	68005	6782.302704434616	6.784519443563
0	68081	6789.087223878179	31.595529533544
0	68413	6820.682753411723	16.90886070667
0	68577	6837.591614118393	24.074886946991
0	68845	6861.666501065384	65.743547908031
0	69525	6927.410048973415	21.461075021176
0	69721	6948.871123994591	29.31649342785
0	70001	6978.187617422441	18.468624848844
0	70117	6996.656242271285	4.3882353336836
0	70193	7001.044477604969	19.482561296249
0	70379	7020.527038901218	0.60020364218851
0	70385	7021.127242543407	16.636972170581
0	70561	7037.764214713988	14.774771455672
0	70753	7052.53898616966	23.200921635087
0	70981	7075.739907804747	25.906324500762
0	71253	7101.646232305509	6.4110782106265
0	71293	7108.057310516135	35.140655784821
0	71705	7143.197966300956	20.376853026402
0	71911	7163.574819327358	22.787923939644
0	72115	7186.362743267002	8.8991045791855
0	72183	7195.261847846187	24.727697806407
0	72425	7219.989545652594	32.636719577271
0	72837	7252.626265229865	2.9488523674303
0	72865	7255.575117597295	0.72215631364663
0	72873	7256.297273910942	12.469270007267
0	73027	7268.766543918209	39.343750706857
0	73459	7308.110294625066	21.550960648884
0	73673	7329.66125527395	3.2524080042652
0	73725	7332.913663278215	17.900145144423
0	73945	7350.813808422638	3.2730255457499
0	73981	7354.086833968388	2.9823574106725
0	74009	7357.069191379061	48.594035925202
0	74461	7405.663227304263	28.003224945988
0	74745	7433.666452250251	7.1012888232531
0	74805	7440.767741073504	28.991036178713
0	75041	7469.758777252217	7.5357801903685
0	75135	7477.294557442586	5.5555472521141
0	75181	7482.8501046947	23.42137313492
0	75427	7506.27147782962	25.196464131045
0	75685	7531.467941960665	9.8513261574096
0	75793	7541.319268118075	8.7064740350731
0	75895	7550.025742153148	54.980086638013
0	76433	7605.005828791161	0.0030677929717917
0	76435	7605.008896584133	38.908674473235
0	76837	7643.917571057368	2.3853252949393
0	76873	7646.302896352307	4.1081121506495
0	76957	7650.411008502957	12.800764182493
0	77037	7663.21177268545	36.728431569107
0	77401	7699.940204254557	17.770548985394
0	77601	7717.710753239951	40.510780177181
0	77977	7758.221533417132	39.739759931727
0	78389	7797.961293348859	5.0493144628698
0	78429	7803.010607811729	1.9197761141654
0	78437	7804.930383925894	8.1948453458161
0	78541	7813.12522927171	9.178069717513
0	78597	7822.303298989223	4.1881314970741
0	78621	7826.491430486297	10.783461417321
0	78705	7837.274891903618	2.8164172031226
0	78745	7840.091309106741	28.271561951667
0	79041	7868.362871058408	6.8165600072749
0	79117	7875.179431065683	1.0352699330231
0	79139	7876.214700998706	43.32382717861
0	79541	7919.538528177316	4.2574575913801
0	79595	7923.795985768696	14.690745905896
0	79773	7938.486731674592	27.613046765273
0	80105	7966.099778439865	6.5408054519586
0	80177	7972.640583891824	2.0455797631945
0	80221	7974.686163655018	2.5368482025105
0	80249	7977.223011857528	34.858792559477
0	80581	8012.081804417005	19.909705655489
0	80793	8031.991510072494	0.31121579509717
0	80797	8032.302725867591	13.079473883046
0	80949	8045.382199750637	22.563852609116
0	81141	8067.946052359753	18.720946732387
0	81289	8086.66699909214	21.260970435021
0	81487	8107.927969527161	0.19406425403776
0	81493	8108.122033781199	23.170680125709
0	81693	8131.292713906908	9.3483943810727
0	81787	8140.641108287981	17.267516669605
0	81973	8157.908624957586	11.506117628099
0	82073	8169.414742585685	62.606209787213
0	82597	8232.020952372898	5.8887678030647
0	82657	8237.909720175963	3.5425960942417
0	82717	8241.452316270205	22.355193639868
0	82895	8263.807509910073	16.303463171097
0	83045	8280.11097308117	41.004477442088
0	83427	8321.115450523258	6.1902280334166
0	83477	8327.305678556675	76.036009164372
0	84335	8403.341687721047	1.9445248882604
0	84353	8405.286212609307	12.321412723125
0	84433	8417.607625332432	16.142590806218
0	84569	8433.75021613865	11.14215282583
0	84665	8444.89236896448	4.4152460368858