file 2896471 1767626728                                         
version 3
run Uniform-6-20260105-16:25:28-14448
attr configname Uniform
attr datetime 20260105-16:25:28
attr datetimef 20260105-162528
attr experiment Uniform
attr inifile omnetpp.ini
attr iterationvars "$N=50, $p=0.8"
attr iterationvarsd N=50/p=0.8
attr iterationvarsf N=50,p=0.8-
attr measurement "$N=50, $p=0.8"
attr network progetto.DatabaseNetwork
attr processid 14448
attr repetition 1
attr replication #1
attr resultdir results
attr runnumber 6
attr seedset 1
itervar N 50
itervar p 0.8
config description "Uniform distribution - varia N e p"
config *.user[*].tableDistribution "\"uniform\""
config *.numUsers 50
config *.user[*].readProbability 0.8
config network progetto.DatabaseNetwork
config sim-time-limit 10000s
config cpu-time-limit 3600s
config repeat 5
config seed-set 1
config output-vector-file "results/Uniform-$N=50, $p=0.8-1.vec"
config output-scalar-file "results/Uniform-$N=50, $p=0.8-1.sca"
config result-dir results
config **.vector-recording true
config **.scalar-recording true
config *.numTables 20
config *.user[*].lambda 0.05
config *.user[*].serviceTime 0.1s

vector 0 DatabaseNetwork.user[0] AccessInterval ETV
vector 1 DatabaseNetwork.user[1] AccessInterval ETV
vector 2 DatabaseNetwork.user[2] AccessInterval ETV
vector 3 DatabaseNetwork.user[3] AccessInterval ETV
vector 4 DatabaseNetwork.user[4] AccessInterval ETV
vector 5 DatabaseNetwork.user[5] AccessInterval ETV
vector 6 DatabaseNetwork.user[6] AccessInterval ETV
vector 7 DatabaseNetwork.user[7] AccessInterval ETV
vector 8 DatabaseNetwork.user[8] AccessInterval ETV
vector 9 DatabaseNetwork.user[9] AccessInterval ETV
vector 10 DatabaseNetwork.user[10] AccessInterval ETV
vector 11 DatabaseNetwork.user[11] AccessInterval ETV
vector 12 DatabaseNetwork.user[12] AccessInterval ETV
vector 13 DatabaseNetwork.user[13] AccessInterval ETV
vector 14 DatabaseNetwork.user[14] AccessInterval ETV
vector 15 DatabaseNetwork.user[15] AccessInterval ETV
vector 16 DatabaseNetwork.user[16] AccessInterval ETV
vector 17 DatabaseNetwork.user[17] AccessInterval ETV
vector 18 DatabaseNetwork.user[18] AccessInterval ETV
vector 19 DatabaseNetwork.user[19] AccessInterval ETV
vector 20 DatabaseNetwork.user[20] AccessInterval ETV
vector 21 DatabaseNetwork.user[21] AccessInterval ETV
vector 22 DatabaseNetwork.user[22] AccessInterval ETV
vector 23 DatabaseNetwork.user[23] AccessInterval ETV
vector 24 DatabaseNetwork.user[24] AccessInterval ETV
vector 25 DatabaseNetwork.user[25] AccessInterval ETV
vector 26 DatabaseNetwork.user[26] AccessInterval ETV
vector 27 DatabaseNetwork.user[27] AccessInterval ETV
vector 28 DatabaseNetwork.user[28] AccessInterval ETV
vector 29 DatabaseNetwork.user[29] AccessInterval ETV
vector 30 DatabaseNetwork.user[30] AccessInterval ETV
vector 31 DatabaseNetwork.user[31] AccessInterval ETV
vector 32 DatabaseNetwork.user[32] AccessInterval ETV
vector 33 DatabaseNetwork.user[33] AccessInterval ETV
vector 34 DatabaseNetwork.user[34] AccessInterval ETV
vector 35 DatabaseNetwork.user[35] AccessInterval ETV
vector 36 DatabaseNetwork.user[36] AccessInterval ETV
vector 37 DatabaseNetwork.user[37] AccessInterval ETV
vector 38 DatabaseNetwork.user[38] AccessInterval ETV
vector 39 DatabaseNetwork.user[39] AccessInterval ETV
vector 40 DatabaseNetwork.user[40] AccessInterval ETV
vector 41 DatabaseNetwork.user[41] AccessInterval ETV
vector 42 DatabaseNetwork.user[42] AccessInterval ETV
vector 43 DatabaseNetwork.user[43] AccessInterval ETV
vector 44 DatabaseNetwork.user[44] AccessInterval ETV
vector 45 DatabaseNetwork.user[45] AccessInterval ETV
vector 46 DatabaseNetwork.user[46] AccessInterval ETV
vector 47 DatabaseNetwork.user[47] AccessInterval ETV
vector 48 DatabaseNetwork.user[48] AccessInterval ETV
vector 49 DatabaseNetwork.user[49] AccessInterval ETV
vector 50 DatabaseNetwork.user[4] ReadAccesses ETV
vector 51 DatabaseNetwork.user[4] WaitTime ETV
vector 52 DatabaseNetwork.user[28] ReadAccesses ETV
vector 53 DatabaseNetwork.user[28] WaitTime ETV
vector 54 DatabaseNetwork.user[10] WriteAccesses ETV
vector 55 DatabaseNetwork.user[45] ReadAccesses ETV
vector 56 DatabaseNetwork.user[10] WaitTime ETV
vector 57 DatabaseNetwork.user[45] WaitTime ETV
vector 58 DatabaseNetwork.user[5] ReadAccesses ETV
vector 59 DatabaseNetwork.user[5] WaitTime ETV
vector 60 DatabaseNetwork.user[36] ReadAccesses ETV
vector 61 DatabaseNetwork.user[36] WaitTime ETV
vector 62 DatabaseNetwork.user[8] ReadAccesses ETV
vector 63 DatabaseNetwork.user[8] WaitTime ETV
vector 64 DatabaseNetwork.user[12] ReadAccesses ETV
vector 65 DatabaseNetwork.user[12] WaitTime ETV
vector 66 DatabaseNetwork.user[38] ReadAccesses ETV
vector 67 DatabaseNetwork.user[38] WaitTime ETV
vector 68 DatabaseNetwork.user[24] ReadAccesses ETV
vector 69 DatabaseNetwork.user[24] WaitTime ETV
vector 70 DatabaseNetwork.user[27] ReadAccesses ETV
vector 71 DatabaseNetwork.user[27] WaitTime ETV
vector 72 DatabaseNetwork.user[9] ReadAccesses ETV
vector 73 DatabaseNetwork.user[9] WaitTime ETV
vector 74 DatabaseNetwork.user[12] WriteAccesses ETV
vector 75 DatabaseNetwork.user[6] ReadAccesses ETV
vector 76 DatabaseNetwork.user[6] WaitTime ETV
vector 77 DatabaseNetwork.user[21] ReadAccesses ETV
vector 78 DatabaseNetwork.user[44] ReadAccesses ETV
vector 79 DatabaseNetwork.user[21] WaitTime ETV
vector 80 DatabaseNetwork.user[44] WaitTime ETV
vector 81 DatabaseNetwork.user[14] ReadAccesses ETV
vector 82 DatabaseNetwork.user[14] WaitTime ETV
vector 83 DatabaseNetwork.user[13] ReadAccesses ETV
vector 84 DatabaseNetwork.user[13] WaitTime ETV
vector 85 DatabaseNetwork.user[11] ReadAccesses ETV
vector 86 DatabaseNetwork.user[16] ReadAccesses ETV
vector 87 DatabaseNetwork.user[11] WaitTime ETV
vector 88 DatabaseNetwork.user[16] WaitTime ETV
vector 89 DatabaseNetwork.user[0] WriteAccesses ETV
vector 90 DatabaseNetwork.user[32] ReadAccesses ETV
vector 91 DatabaseNetwork.user[20] WriteAccesses ETV
vector 92 DatabaseNetwork.user[0] WaitTime ETV
vector 93 DatabaseNetwork.user[32] WaitTime ETV
vector 94 DatabaseNetwork.user[20] WaitTime ETV
vector 95 DatabaseNetwork.user[35] WriteAccesses ETV
vector 96 DatabaseNetwork.user[35] WaitTime ETV
vector 97 DatabaseNetwork.user[25] ReadAccesses ETV
vector 98 DatabaseNetwork.user[25] WaitTime ETV
vector 99 DatabaseNetwork.user[33] ReadAccesses ETV
vector 100 DatabaseNetwork.user[33] WaitTime ETV
vector 101 DatabaseNetwork.user[32] WriteAccesses ETV
vector 102 DatabaseNetwork.user[47] ReadAccesses ETV
vector 103 DatabaseNetwork.user[47] WaitTime ETV
vector 104 DatabaseNetwork.user[23] WriteAccesses ETV
vector 105 DatabaseNetwork.user[23] WaitTime ETV
vector 106 DatabaseNetwork.user[29] ReadAccesses ETV
vector 107 DatabaseNetwork.user[29] WaitTime ETV
vector 108 DatabaseNetwork.user[18] ReadAccesses ETV
vector 109 DatabaseNetwork.user[18] WaitTime ETV
vector 110 DatabaseNetwork.user[34] ReadAccesses ETV
vector 111 DatabaseNetwork.user[34] WaitTime ETV
vector 112 DatabaseNetwork.user[35] ReadAccesses ETV
vector 113 DatabaseNetwork.user[20] ReadAccesses ETV
vector 114 DatabaseNetwork.user[15] ReadAccesses ETV
vector 115 DatabaseNetwork.user[30] ReadAccesses ETV
vector 116 DatabaseNetwork.user[15] WaitTime ETV
vector 117 DatabaseNetwork.user[30] WaitTime ETV
vector 118 DatabaseNetwork.user[22] ReadAccesses ETV
vector 119 DatabaseNetwork.user[22] WaitTime ETV
vector 120 DatabaseNetwork.user[11] WriteAccesses ETV
vector 121 DatabaseNetwork.user[46] ReadAccesses ETV
vector 122 DatabaseNetwork.user[46] WaitTime ETV
vector 123 DatabaseNetwork.user[10] ReadAccesses ETV
vector 124 DatabaseNetwork.user[41] ReadAccesses ETV
vector 125 DatabaseNetwork.user[41] WaitTime ETV
vector 126 DatabaseNetwork.user[23] ReadAccesses ETV
vector 127 DatabaseNetwork.user[2] ReadAccesses ETV
vector 128 DatabaseNetwork.user[2] WaitTime ETV
vector 129 DatabaseNetwork.user[6] WriteAccesses ETV
vector 130 DatabaseNetwork.user[0] ReadAccesses ETV
vector 131 DatabaseNetwork.user[14] WriteAccesses ETV
vector 132 DatabaseNetwork.user[39] ReadAccesses ETV
vector 133 DatabaseNetwork.user[39] WaitTime ETV
vector 134 DatabaseNetwork.user[40] ReadAccesses ETV
vector 135 DatabaseNetwork.user[40] WaitTime ETV
vector 136 DatabaseNetwork.user[43] WriteAccesses ETV
vector 137 DatabaseNetwork.user[43] WaitTime ETV
vector 138 DatabaseNetwork.user[4] WriteAccesses ETV
vector 139 DatabaseNetwork.user[19] ReadAccesses ETV
vector 140 DatabaseNetwork.user[19] WaitTime ETV
vector 141 DatabaseNetwork.user[25] WriteAccesses ETV
vector 142 DatabaseNetwork.user[49] ReadAccesses ETV
vector 143 DatabaseNetwork.user[49] WaitTime ETV
vector 144 DatabaseNetwork.user[48] ReadAccesses ETV
vector 145 DatabaseNetwork.user[48] WaitTime ETV
vector 146 DatabaseNetwork.user[26] ReadAccesses ETV
vector 147 DatabaseNetwork.user[26] WaitTime ETV
vector 148 DatabaseNetwork.user[5] WriteAccesses ETV
vector 149 DatabaseNetwork.user[34] WriteAccesses ETV
vector 150 DatabaseNetwork.user[22] WriteAccesses ETV
vector 151 DatabaseNetwork.user[31] ReadAccesses ETV
vector 152 DatabaseNetwork.user[31] WaitTime ETV
vector 153 DatabaseNetwork.user[18] WriteAccesses ETV
vector 154 DatabaseNetwork.user[13] WriteAccesses ETV
vector 155 DatabaseNetwork.user[3] ReadAccesses ETV
vector 156 DatabaseNetwork.user[3] WaitTime ETV
vector 157 DatabaseNetwork.user[17] ReadAccesses ETV
vector 158 DatabaseNetwork.user[17] WaitTime ETV
vector 159 DatabaseNetwork.user[37] ReadAccesses ETV
vector 160 DatabaseNetwork.user[37] WaitTime ETV
vector 161 DatabaseNetwork.user[33] WriteAccesses ETV
vector 162 DatabaseNetwork.user[40] WriteAccesses ETV
vector 163 DatabaseNetwork.user[42] ReadAccesses ETV
vector 164 DatabaseNetwork.user[42] WaitTime ETV
vector 165 DatabaseNetwork.user[38] WriteAccesses ETV
vector 166 DatabaseNetwork.user[46] WriteAccesses ETV
vector 167 DatabaseNetwork.user[17] WriteAccesses ETV
vector 168 DatabaseNetwork.user[43] ReadAccesses ETV
vector 169 DatabaseNetwork.user[3] WriteAccesses ETV
vector 170 DatabaseNetwork.user[31] WriteAccesses ETV
vector 171 DatabaseNetwork.user[37] WriteAccesses ETV
vector 172 DatabaseNetwork.user[45] WriteAccesses ETV
vector 173 DatabaseNetwork.user[2] WriteAccesses ETV
vector 174 DatabaseNetwork.user[9] WriteAccesses ETV
vector 175 DatabaseNetwork.user[36] WriteAccesses ETV
vector 176 DatabaseNetwork.user[28] WriteAccesses ETV
vector 177 DatabaseNetwork.user[16] WriteAccesses ETV
vector 178 DatabaseNetwork.user[1] ReadAccesses ETV
vector 179 DatabaseNetwork.user[1] WaitTime ETV
vector 180 DatabaseNetwork.user[49] WriteAccesses ETV
vector 181 DatabaseNetwork.user[8] WriteAccesses ETV
vector 182 DatabaseNetwork.user[7] ReadAccesses ETV
vector 183 DatabaseNetwork.user[7] WaitTime ETV
vector 184 DatabaseNetwork.user[44] WriteAccesses ETV
vector 185 DatabaseNetwork.user[21] WriteAccesses ETV
vector 186 DatabaseNetwork.user[15] WriteAccesses ETV
vector 187 DatabaseNetwork.user[26] WriteAccesses ETV
vector 188 DatabaseNetwork.user[19] WriteAccesses ETV
vector 189 DatabaseNetwork.user[7] WriteAccesses ETV
vector 190 DatabaseNetwork.user[42] WriteAccesses ETV
vector 191 DatabaseNetwork.user[47] WriteAccesses ETV
vector 192 DatabaseNetwork.user[24] WriteAccesses ETV
vector 193 DatabaseNetwork.user[30] WriteAccesses ETV
vector 194 DatabaseNetwork.user[41] WriteAccesses ETV
vector 195 DatabaseNetwork.user[1] WriteAccesses ETV
vector 196 DatabaseNetwork.user[27] WriteAccesses ETV
vector 197 DatabaseNetwork.user[39] WriteAccesses ETV
vector 198 DatabaseNetwork.user[48] WriteAccesses ETV
vector 199 DatabaseNetwork.user[29] WriteAccesses ETV
0	11492 21839 0 98997 0 9975.889240837011 525 0.051234964984868 110.84295371163 10011.368786437 362107.65807604
1	33331 21463 0 98843 0 9963.033042025102 516 0.028812712126022 143.04623340627 10032.157358047 412635.44619447
2	54794 21431 0 99089 0 9987.549122327999 516 0.0096988255991887 138.69600834884 10022.653325311 389571.05528406
3	76225 20205 0 98447 0 9926.396825802517 486 0.0089321996753779 162.44347657589 10016.745022246 417749.54729922
4	96430 19144 0 99115 0 9990.11807412227 461 0.0022877524501596 143.15974534675 10006.388482198 422252.41762475
5	115574 20026 0 98677 0 9949.427426591918 482 0.16732727190766 188.71159600345 10022.980594614 423914.13925166
6	135600 21600 0 98909 0 9966.955448889771 520 0.0047694757447799 189.74195071835 10008.780151998 389988.02298529
7	157200 20360 0 99031 0 9980.456655506023 489 0.031380891463851 168.15603931475 10003.638152089 440802.55820693
8	177560 20240 0 98727 0 9953.323081334019 487 0.031733389360898 183.7954060235 10010.668256291 426507.25363029
9	197800 20142 0 98965 0 9972.026584065267 485 0.061511334387973 122.31986769862 10002.968917605 404520.78379457
10	217942 21861 0 99179 0 9996.153595328499 514 0.024240820074891 115.40043658838 10097.894385185 393573.15581006
11	239803 21990 0 98651 0 9944.782361932636 517 0.0062286866162945 151.63122362319 10003.837033264 427613.91535108
12	261793 22372 0 98347 0 9913.015986762539 526 0.032509817053472 150.63219787254 10028.60736603 412703.43293712
13	284165 20395 0 97875 0 9862.891699403547 480 0.10111233552027 166.12095365188 10000.203222874 447049.02536099
14	304560 20719 0 99061 0 9983.436781929749 487 0.0098736877915384 144.06945097505 10127.506232905 449321.83411385
15	325279 20168 0 99133 0 9990.421957350433 474 0.031648457969333 139.59973387613 10043.838416591 431682.22753939
16	345447 20713 0 99197 0 9999.088161890493 487 0.010371363658346 122.17557611469 10007.784195932 409546.53435077
17	366160 18646 0 98985 0 9974.511411404623 438 0.023655411927899 155.38097481153 10016.397536558 449497.43267655
18	384806 20318 0 98993 0 9975.053289071569 477 0.023151116350428 154.04314371709 10008.834674367 424139.1886549
19	405124 20312 0 99185 0 9996.501166250001 477 0.037590327724863 129.90963351858 10001.883497208 423658.17018165
20	425436 20759 0 99141 0 9991.081582127087 488 0.003767209999471 102.98281600494 10008.774996737 385050.2339868
21	446195 21759 0 99173 0 9996.029940310807 511 0.014823681847273 130.45124485531 10022.830893015 401082.13686654
22	467954 21175 0 99189 0 9996.727910120343 498 0.011596222424663 133.87975209946 10047.905560918 399316.12541666
23	489129 23304 0 99037 0 9980.886179092497 548 0.071418434536173 116.17496978233 10046.676896709 375156.84811746
24	512433 20931 0 99005 0 9976.920251325624 492 0.070974656299187 174.09663289428 10003.710000559 407995.25313477
25	533364 20812 0 99025 0 9979.0764662856 489 0.0048817737732884 126.21822025211 10076.599803519 393982.84672549
26	554176 21630 0 99175 0 9996.099086575689 508 0.0074573910385494 123.80142411281 10026.590913603 389069.39823953
27	575806 22701 0 98745 0 9954.839102559341 533 0.022180687342159 138.4521635458 10002.702403629 386462.56454677
28	598507 19881 0 98921 0 9967.568536978461 467 0.038335942919895 125.72276001175 10005.973634176 419061.84932771
29	618388 21586 0 98877 0 9965.361969969297 507 0.031844005926585 92.174258355465 10016.645391552 378112.26180373
30	639974 22934 0 99113 0 9990.048077149955 539 0.045043553774284 111.06735699411 10003.773485638 353727.99835727
31	662908 20935 0 98715 0 9952.711255452232 492 0.020866145854828 104.8301977308 10046.409975537 398961.72890731
32	683843 19057 0 99105 0 9989.013592909989 448 0.026255749994766 146.54077052811 10023.748901511 481512.43750092
33	702900 21974 0 99101 0 9988.773738948348 516 0.11248577557766 124.626161655 10005.892468732 399477.57612625
34	724874 19899 0 99085 0 9987.092463379813 468 0.099623511728748 184.22710797948 10001.299993382 456918.37845738
35	744773 20362 0 99041 0 9981.2914297979 478 0.036774659823825 114.29960541522 10048.87649311 436332.52201227
36	765135 21825 0 99159 0 9994.194035165176 512 0.022314466892583 147.56704718234 10001.046285147 436308.20717275
37	786960 21323 0 99051 0 9981.859425766796 500 0.010699091710082 128.92525215641 10001.527156729 380338.95695989
38	808283 22393 0 99155 0 9994.157991223938 526 0.0091809521365116 131.53743934764 10009.260088695 378272.37721508
39	830676 21208 0 99153 0 9994.074619234545 498 0.1141889729258 122.40810658407 10001.229798784 416860.55747372
40	851884 23158 0 99069 0 9984.492289351598 544 0.04482422403855 133.22995350311 10037.95344077 356762.32269579
41	875042 21728 0 99043 0 9981.369724825493 510 0.092962868936504 150.30015386236 10009.00020158 411112.7136882
42	896770 20304 0 99093 0 9987.896369777813 477 0.093955143935072 143.74399646172 10022.358866656 415585.29429196
43	917074 22243 0 98999 0 9975.955210665808 522 0.059105702851395 174.67491564188 10017.047747925 404614.23371105
44	939317 20133 0 99077 0 9986.605002957682 473 0.027238299938806 131.73367803842 10003.197629655 440330.06255774
45	959450 19691 0 99057 0 9982.833272019833 463 0.023856965881187 136.13899530595 10029.664709483 424003.36090863
46	979141 21528 0 99149 0 9992.829674654064 506 0.039611814825651 127.76620391215 10003.384897046 370912.25658411
47	1000669 20829 0 99193 0 9997.29731205588 489 0.022519802085586 176.25530530162 10035.628683355 417476.48387008
48	1021498 21119 0 98625 0 9941.676306480286 496 0.013158788942488 116.58926275025 10010.871052698 387733.37725995
49	1042617 21666 0 99073 0 9986.462686226817 508 0.018667859742578 99.138065853756 10018.85084434 374065.57823229
50	1064283 10425 1 99115 0.00228775245 9990.11807412227 364 1 1 364 364
51	1074708 20251 4 99122 0.10228775245 9990.21807412227 460 0.099999999998545 0.10000000000036 46.000000000001 4.6000000000002
52	1094959 10120 5 98761 0.555392552337 9955.484756342482 353 1 1 353 353
53	1105079 20550 8 98926 0.655392552337 9967.668536978461 466 0.099999999998545 0.18292474873306 46.746083842809 4.700082353678
54	1125629 2931 9 99179 1.937677450053 9996.153595328499 103 1 1 103 103
55	1128560 10333 11 98923 1.947864782496 9967.610260951518 361 1 1 361 361
56	1138893 22518 14 99184 2.037677450053 9996.253595328499 513 0.099999999998545 0.19880657395424 51.486893666486 5.1849008082262
57	1161411 20350 16 99060 2.047864782496 9982.933272019833 462 0.099999999998545 0.14486226597546 46.244862265975 4.6309850761034
58	1181761 10860 17 98473 2.742171611863 9928.765567896204 379 1 1 379 379
59	1192621 21131 20 98680 2.842171611863 9949.527426591918 481 0.099999999998545 0.19047823010624 48.247061326343 4.8508002221728
60	1213752 12050 21 98857 3.025458353437 9963.9970060688 420 1 1 420 420
61	1225802 22542 24 99164 3.125458353437 9994.357991223938 511 0.099999999998545 0.16395605876278 51.239448483412 5.1444484399684
62	1248344 10929 25 98727 3.174191944526 9953.323081334019 382 1 1 382 382
63	1259273 21400 28 98732 3.274191944526 9953.423081334019 486 0.099999999998545 0.18933055619345 48.867025602882 4.9340239976375
64	1280673 12284 29 98347 4.122292679277 9913.015986762539 429 1 1 429 429
65	1292957 23055 32 98352 4.222292679277 9913.115986762539 525 0.099999999998545 0.10173980321269 52.501739803215 5.2503509875582
66	1316012 12255 37 99155 4.415464337692 9994.157991223938 428 1 1 428 428
67	1328267 23109 40 99162 4.515464337692 9994.257991223938 525 0.099999999998545 0.15635458223187 52.570335832809 5.2674384808679
68	1351376 10588 41 99005 4.574488131862 9976.920251325624 370 1 1 370 370
69	1361964 21623 44 99008 4.674488131862 9977.020251325624 491 0.099999999998545 0.13291396073782 49.175411302931 4.9271671947139
70	1383587 12416 49 98745 5.216316998776 9954.839102559341 433 1 1 433 433
71	1396003 23473 52 98748 5.316316998776 9954.939102559341 532 0.099999999998545 0.16625785938868 53.266257859381 5.337641675807
72	1419476 11018 53 98965 5.386079153525 9972.026584065267 385 1 1 385 385
73	1430494 21299 56 98968 5.486079153525 9972.126584065267 484 0.099999999998545 0.1570179145001 48.523762377526 4.8713220610075
74	1451793 2746 61 97821 6.732700642803 9857.404622955567 96 1 1 96 96
75	1454539 11815 67 98909 7.200254957118 9966.955448889771 413 1 1 413 413
76	1466354 22861 72 98912 7.300254957118 9967.055448889771 519 0.099999999998545 0.17099268851098 51.988591912489 5.2130680770046
77	1489215 11753 73 99173 7.516383853158 9996.029940310807 410 1 1 410 410
78	1500968 10982 75 99077 7.520772448292 9986.605002957682 383 1 1 383 383
79	1511950 22486 78 99178 7.616383853158 9996.129940310807 510 0.099999999998545 0.146607499737 51.046721422354 5.1115165564808
80	1534436 20778 80 99080 7.620772448292 9986.705002957682 472 0.099999999998545 0.16443465450993 47.31931018876 4.749527633171
81	1555214 11195 81 98813 8.479529576145 9961.251970987794 391 1 1 391 391
82	1566409 21306 84 99064 8.579529576145 9983.536781929749 486 0.099999999998545 0.19580869009042 48.695808690092 4.8883410431152
83	1587715 10857 85 97833 9.81754315573 9858.977956502803 380 1 1 380 380
84	1598572 21030 88 97882 9.91754315573 9862.991699403547 479 0.099999999998545 0.17752480116724 48.113232990896 4.848032548376
85	1619602 11693 89 98651 10.102860213487 9944.782361932636 409 1 1 409 409
86	1631295 11615 91 99197 10.109050649433 9999.088161890493 406 1 1 406 406
87	1642910 22679 94 98658 10.202860213487 9944.882361932636 516 0.099999999998545 0.18817883930478 51.688178839304 5.1854112755619
88	1665589 21394 96 99200 10.209050649433 9999.188161890493 486 0.099999999998545 0.15648196752136 48.70887553093 4.8873652225556
89	1686983 2809 101 98225 10.792116530237 9901.337608076584 98 1 1 98 98
90	1689792 10011 103 99105 10.801820995773 9989.013592909989 349 1 1 349 349
91	1699803 2634 105 98719 10.866787572517 9952.805711426487 92 1 1 92 92
92	1702437 23108 108 99002 10.892116530237 9975.989240837011 524 0.099999999998545 0.10000000000036 52.399999999996 5.2399999999992
93	1725545 19681 110 99108 10.901820995773 9989.113592909989 447 0.099999999998545 0.10000000000036 44.700000000005 4.470000000001
94	1745226 21459 112 99144 10.992116530237 9991.181582127087 487 0.099999999998545 0.19081011956405 48.948547130744 4.9365299372367
95	1766685 2371 117 95569 11.266904626835 9628.031202011054 83 1 1 83 83
96	1769056 21014 120 99046 11.366904626835 9981.3914297979 477 0.099999999998545 0.10000000000036 47.699999999997 4.7699999999993
97	1790070 11071 129 98833 11.720069290216 9962.43135245718 386 1 1 386 386
98	1801141 21504 132 99028 11.820069290216 9979.1764662856 488 0.099999999998545 0.17972480500794 48.879724804998 4.9023010055331
99	1822645 12129 133 99101 12.220464220164 9988.773738948348 423 1 1 423 423
100	1834774 23203 136 99104 12.320464220164 9988.873738948348 515 0.099999999998545 0.15353138196497 51.553531381947 5.1635718852444
101	1857977 2902 137 98613 13.801456643757 9940.69658467315 98 1 1 98 98
102	1860879 12091 149 99193 14.602554102703 9997.29731205588 407 1 1 407 407
103	1872970 22017 152 99196 14.702554102703 9997.39731205588 488 0.099999999998545 0.16063485678296 48.86063485679 4.895803557215
104	1894987 2821 157 97169 14.869793813563 9789.286091511549 95 1 1 95 95
105	1897808 24625 160 99040 14.969793813563 9980.986179092497 547 0.099999999998545 0.19007459859802 54.987679086989 5.5491125067921
106	1922433 12319 161 98701 15.289165049021 9951.161215290128 416 1 1 416 416
107	1934752 22809 164 98880 15.389165049021 9965.461969969297 506 0.099999999998545 0.19410418588905 50.775396081536 5.1091813271567
108	1957561 10789 165 98373 15.479195405514 9916.541434983684 364 1 1 364 364
109	1968350 21442 168 98996 15.579195405514 9975.153289071569 476 0.099999999998545 0.10000000000036 47.599999999998 4.7599999999997
110	1989792 10761 173 98949 16.360146227598 9969.792063935308 364 1 1 364 364
111	2000553 21021 176 99088 16.460146227598 9987.192463379813 467 0.099999999998545 0.16917866352651 46.769178663511 4.6886214201896
112	2021574 11711 181 99041 20.232092535774 9981.2914297979 394 1 1 394 394
113	2033285 11714 185 99141 20.349730654065 9991.081582127087 395 1 1 395 395
114	2044999 11489 189 99133 22.157866916913 9990.421957350433 388 1 1 388 388
115	2056488 12796 191 99113 22.201606371005 9990.048077149955 432 1 1 432 432
116	2069284 21333 194 99136 22.257866916913 9990.521957350433 473 0.099999999998545 0.16750914042177 47.444782353787 4.7668878143091
117	2090617 24208 196 99120 22.301606371005 9990.148077149955 538 0.099999999998545 0.15114927481227 53.874644189915 5.3980970973319
118	2114825 11939 201 99189 23.117594212154 9996.727910120343 403 1 1 403 403
119	2126764 22370 204 99192 23.217594212154 9996.827910120343 497 0.099999999998545 0.10727375206443 49.707273752069 4.9715076578828
120	2149134 3175 209 96317 23.522428105387 9703.402660748009 107 1 1 107 107
121	2152309 11713 211 99145 23.574070050879 9992.19029764545 395 1 1 395 395
122	2164022 22729 216 99152 23.674070050879 9992.929674654064 505 0.099999999998545 0.19414448284169 50.804701907268 5.1311367563798
123	2186751 12153 225 99165 24.142958068726 9995.30003131005 410 1 1 410 410
124	2198904 12112 241 99043 25.173544223505 9981.369724825493 408 1 1 408 408
125	2211016 22958 244 99048 25.273544223505 9981.469724825493 509 0.099999999998545 0.13318885893801 50.945845969019 5.1004308965969
126	2233974 13374 245 99037 25.359388990519 9980.886179092497 452 1 1 452 452
127	2247348 12555 249 98957 25.482504763199 9970.206964790308 424 1 1 424 424
128	2259903 23174 252 99092 25.582504763199 9987.649122327999 515 0.099999999998545 0.19162879391115 51.723223437951 5.2090509871489
129	2283077 3154 255 98429 26.045132579558 9922.376496503488 106 1 1 106 106
130	2286231 12668 265 98997 26.356990913402 9975.889240837011 426 1 1 426 426
131	2298899 2809 269 99061 26.910220162014 9983.436781929749 95 1 1 95 95
132	2301708 11781 293 99153 30.136654979855 9994.074619234545 397 1 1 397 397
133	2313489 22409 296 99158 30.236654979855 9994.174619234545 497 0.099999999998545 0.199373728762 49.870456662957 5.0164971558299
134	2335898 13126 313 99069 32.263353825185 9984.492289351598 442 1 1 442 442
135	2349024 24482 316 99072 32.363353825185 9984.592289351598 543 0.099999999998545 0.18497772053342 54.517391851469 5.490001801634
136	2373506 3262 317 98837 32.466427183572 9962.868742329095 110 1 1 110 110
137	2376768 23505 320 99004 32.566427183572 9976.055210665808 521 0.099999999998545 0.17537111664205 52.193862734808 5.2346387081236
138	2400273 2845 337 97615 35.394815964888 9836.894134694685 96 1 1 96 96
139	2403118 10988 357 99185 37.456473337418 9996.501166250001 370 1 1 370 370
140	2414106 21427 360 99188 37.556473337418 9996.601166250001 476 0.099999999998545 0.13981784717453 47.639817847179 4.7695490303895
141	2435533 3014 377 99025 39.52149395772 9979.0764662856 102 1 1 102 102
142	2438547 12312 389 99073 40.052609541518 9986.462686226817 414 1 1 414 414
143	2450859 22917 392 99076 40.152609541518 9986.562686226817 507 0.099999999998545 0.18231808999644 50.851833048539 5.1111046512469
144	2473776 11915 407 98513 41.812338459188 9930.973934392158 402 1 1 402 402
145	2485691 22324 412 98628 41.912338459188 9941.776306480286 495 0.099999999998545 0.16285043491916 49.581692983487 4.9706438155037
146	2508015 12488 417 99175 42.093945925536 9996.099086575689 421 1 1 421 421
147	2520503 22829 422 99182 42.193945925536 9996.199086575689 507 0.099999999998545 0.19274671891071 50.832155309636 5.106586052818
148	2543332 3028 433 98677 42.873672956469 9949.427426591918 102 1 1 102 102
149	2546360 3063 453 99085 46.969285331913 9987.092463379813 103 1 1 103 103
150	2549423 2781 455 98413 46.986044818751 9920.79517692426 94 1 1 94 94
151	2552204 11641 473 98661 49.059329604428 9945.271298258848 393 1 1 393 393
152	2563845 22081 476 98722 49.159329604428 9952.811255452232 491 0.099999999998545 0.10000000000036 49.100000000005 4.9100000000009
153	2585926 3326 483 98993 49.806894408114 9975.053289071569 112 1 1 112 112
154	2589252 2933 513 97875 52.559235858436 9862.891699403547 99 1 1 99 99
155	2592185 11225 523 98289 53.929556758937 9907.297965394598 378 1 1 378 378
156	2603410 21889 532 98452 54.029556758937 9926.496825802517 485 0.099999999998545 0.13203147247805 48.532031472479 4.8574323097249
157	2625299 10689 555 98985 54.833920313446 9974.511411404623 360 1 1 360 360
158	2635988 19709 560 98988 54.933920313446 9974.611411404623 437 0.099999999998545 0.12262744363943 43.723038652983 4.3751199008953
159	2655697 12241 567 99051 55.97957222567 9981.859425766796 412 1 1 412 412
160	2667938 22507 572 99056 56.07957222567 9981.959425766796 499 0.099999999998545 0.10000000000036 49.900000000008 4.9900000000016
161	2690445 2719 625 98253 61.933684153897 9903.121187684261 92 1 1 92 92
162	2693164 2991 641 98893 62.513926803029 9966.323604055734 101 1 1 101 101
163	2696155 11396 701 99093 69.004541745721 9987.896369777813 384 1 1 384 384
164	2707551 21475 704 99096 69.104541745721 9987.996369777813 476 0.099999999998545 0.18416600786622 47.720023787445 4.7923744547247
165	2729026 2894 721 98521 69.554132618484 9931.396322462377 97 1 1 97 97
166	2731920 3259 795 99149 78.087202048815 9992.829674654064 110 1 1 110 110
167	2735179 2273 809 97333 79.360464117126 9805.573538477033 77 1 1 77 77
168	2737452 12209 813 98999 80.079332873773 9975.955210665808 411 1 1 411 411
169	2749661 3171 827 98447 81.497762075438 9926.396825802517 107 1 1 107 107
170	2752832 2902 865 98715 87.113780733888 9952.711255452232 98 1 1 98 98
171	2755734 2588 889 97985 89.072476468822 9875.754421626143 87 1 1 87 87
172	2758322 3000 931 99057 92.855527880599 9982.833272019833 101 1 1 101 101
173	2761322 2699 985 99089 97.662786637801 9987.549122327999 91 1 1 91 91
174	2764021 2937 993 95331 98.624539289215 9598.915861224965 99 1 1 99 99
175	2766958 2704 1009 99159 101.121367671591 9994.194035165176 91 1 1 91 91
176	2769662 3367 1061 98921 107.427320187224 9967.568536978461 113 1 1 113 113
177	2773029 2377 1157 98589 115.869572979167 9936.678954271879 80 1 1 80 80
178	2775406 12875 1173 98843 117.454497219628 9963.033042025102 433 1 1 433 433
179	2788281 23278 1176 98848 117.554497219628 9963.133042025102 515 0.099999999998545 0.16415792602038 51.588755349417 5.1724723425932
180	2811559 2768 1231 97947 123.270666554392 9871.028315679561 93 1 1 93 93
181	2814327 3087 1329 97297 134.318640370958 9802.776145878103 104 1 1 104 104