file 5944543 1767629706                                         
version 3
run Uniform-61-20260105-17:15:06-28078
attr configname Uniform
attr datetime 20260105-17:15:06
attr datetimef 20260105-171506
attr experiment Uniform
attr inifile omnetpp.ini
attr iterationvars "$N=100, $p=0.7"
attr iterationvarsd N=100/p=0.7
attr iterationvarsf N=100,p=0.7-
attr measurement "$N=100, $p=0.7"
attr network progetto.DatabaseNetwork
attr processid 28078
attr repetition 1
attr replication #1
attr resultdir results
attr runnumber 61
attr seedset 1
itervar N 100
itervar p 0.7
config description "Uniform distribution - varia N e p"
config *.user[*].tableDistribution "\"uniform\""
config *.numUsers 100
config *.user[*].readProbability 0.7
config network progetto.DatabaseNetwork
config sim-time-limit 10000s
config cpu-time-limit 3600s
config repeat 5
config seed-set 1
config output-vector-file "results/Uniform-$N=100, $p=0.7-1.vec"
config output-scalar-file "results/Uniform-$N=100, $p=0.7-1.sca"
config result-dir results
config **.vector-recording true
config **.scalar-recording true
config *.numTables 20
config *.user[*].lambda 0.05
config *.user[*].serviceTime 0.1s

vector 0 DatabaseNetwork.user[0] AccessInterval ETV
vector 1 DatabaseNetwork.user[1] AccessInterval ETV
vector 2 DatabaseNetwork.user[2] AccessInterval ETV
vector 3 DatabaseNetwork.user[3] AccessInterval ETV
vector 4 DatabaseNetwork.user[4] AccessInterval ETV
vector 5 DatabaseNetwork.user[5] AccessInterval ETV
vector 6 DatabaseNetwork.user[6] AccessInterval ETV
vector 7 DatabaseNetwork.user[7] AccessInterval ETV
vector 8 DatabaseNetwork.user[8] AccessInterval ETV
vector 9 DatabaseNetwork.user[9] AccessInterval ETV
vector 10 DatabaseNetwork.user[10] AccessInterval ETV
vector 11 DatabaseNetwork.user[11] AccessInterval ETV
vector 12 DatabaseNetwork.user[12] AccessInterval ETV
vector 13 DatabaseNetwork.user[13] AccessInterval ETV
vector 14 DatabaseNetwork.user[14] AccessInterval ETV
vector 15 DatabaseNetwork.user[15] AccessInterval ETV
vector 16 DatabaseNetwork.user[16] AccessInterval ETV
vector 17 DatabaseNetwork.user[17] AccessInterval ETV
vector 18 DatabaseNetwork.user[18] AccessInterval ETV
vector 19 DatabaseNetwork.user[19] AccessInterval ETV
vector 20 DatabaseNetwork.user[20] AccessInterval ETV
vector 21 DatabaseNetwork.user[21] AccessInterval ETV
vector 22 DatabaseNetwork.user[22] AccessInterval ETV
vector 23 DatabaseNetwork.user[23] AccessInterval ETV
vector 24 DatabaseNetwork.user[24] AccessInterval ETV
vector 25 DatabaseNetwork.user[25] AccessInterval ETV
vector 26 DatabaseNetwork.user[26] AccessInterval ETV
vector 27 DatabaseNetwork.user[27] AccessInterval ETV
vector 28 DatabaseNetwork.user[28] AccessInterval ETV
vector 29 DatabaseNetwork.user[29] AccessInterval ETV
vector 30 DatabaseNetwork.user[30] AccessInterval ETV
vector 31 DatabaseNetwork.user[31] AccessInterval ETV
vector 32 DatabaseNetwork.user[32] AccessInterval ETV
vector 33 DatabaseNetwork.user[33] AccessInterval ETV
vector 34 DatabaseNetwork.user[34] AccessInterval ETV
vector 35 DatabaseNetwork.user[35] AccessInterval ETV
vector 36 DatabaseNetwork.user[36] AccessInterval ETV
vector 37 DatabaseNetwork.user[37] AccessInterval ETV
vector 38 DatabaseNetwork.user[38] AccessInterval ETV
vector 39 DatabaseNetwork.user[39] AccessInterval ETV
vector 40 DatabaseNetwork.user[40] AccessInterval ETV
vector 41 DatabaseNetwork.user[41] AccessInterval ETV
vector 42 DatabaseNetwork.user[42] AccessInterval ETV
vector 43 DatabaseNetwork.user[43] AccessInterval ETV
vector 44 DatabaseNetwork.user[44] AccessInterval ETV
vector 45 DatabaseNetwork.user[45] AccessInterval ETV
vector 46 DatabaseNetwork.user[46] AccessInterval ETV
vector 47 DatabaseNetwork.user[47] AccessInterval ETV
vector 48 DatabaseNetwork.user[48] AccessInterval ETV
vector 49 DatabaseNetwork.user[49] AccessInterval ETV
vector 50 DatabaseNetwork.user[50] AccessInterval ETV
vector 51 DatabaseNetwork.user[51] AccessInterval ETV
vector 52 DatabaseNetwork.user[52] AccessInterval ETV
vector 53 DatabaseNetwork.user[53] AccessInterval ETV
vector 54 DatabaseNetwork.user[54] AccessInterval ETV
vector 55 DatabaseNetwork.user[55] AccessInterval ETV
vector 56 DatabaseNetwork.user[56] AccessInterval ETV
vector 57 DatabaseNetwork.user[57] AccessInterval ETV
vector 58 DatabaseNetwork.user[58] AccessInterval ETV
vector 59 DatabaseNetwork.user[59] AccessInterval ETV
vector 60 DatabaseNetwork.user[60] AccessInterval ETV
vector 61 DatabaseNetwork.user[61] AccessInterval ETV
vector 62 DatabaseNetwork.user[62] AccessInterval ETV
vector 63 DatabaseNetwork.user[63] AccessInterval ETV
vector 64 DatabaseNetwork.user[64] AccessInterval ETV
vector 65 DatabaseNetwork.user[65] AccessInterval ETV
vector 66 DatabaseNetwork.user[66] AccessInterval ETV
vector 67 DatabaseNetwork.user[67] AccessInterval ETV
vector 68 DatabaseNetwork.user[68] AccessInterval ETV
vector 69 DatabaseNetwork.user[69] AccessInterval ETV
vector 70 DatabaseNetwork.user[70] AccessInterval ETV
vector 71 DatabaseNetwork.user[71] AccessInterval ETV
vector 72 DatabaseNetwork.user[72] AccessInterval ETV
vector 73 DatabaseNetwork.user[73] AccessInterval ETV
vector 74 DatabaseNetwork.user[74] AccessInterval ETV
vector 75 DatabaseNetwork.user[75] AccessInterval ETV
vector 76 DatabaseNetwork.user[76] AccessInterval ETV
vector 77 DatabaseNetwork.user[77] AccessInterval ETV
vector 78 DatabaseNetwork.user[78] AccessInterval ETV
vector 79 DatabaseNetwork.user[79] AccessInterval ETV
vector 80 DatabaseNetwork.user[80] AccessInterval ETV
vector 81 DatabaseNetwork.user[81] AccessInterval ETV
vector 82 DatabaseNetwork.user[82] AccessInterval ETV
vector 83 DatabaseNetwork.user[83] AccessInterval ETV
vector 84 DatabaseNetwork.user[84] AccessInterval ETV
vector 85 DatabaseNetwork.user[85] AccessInterval ETV
vector 86 DatabaseNetwork.user[86] AccessInterval ETV
vector 87 DatabaseNetwork.user[87] AccessInterval ETV
vector 88 DatabaseNetwork.user[88] AccessInterval ETV
vector 89 DatabaseNetwork.user[89] AccessInterval ETV
vector 90 DatabaseNetwork.user[90] AccessInterval ETV
vector 91 DatabaseNetwork.user[91] AccessInterval ETV
vector 92 DatabaseNetwork.user[92] AccessInterval ETV
vector 93 DatabaseNetwork.user[93] AccessInterval ETV
vector 94 DatabaseNetwork.user[94] AccessInterval ETV
vector 95 DatabaseNetwork.user[95] AccessInterval ETV
vector 96 DatabaseNetwork.user[96] AccessInterval ETV
vector 97 DatabaseNetwork.user[97] AccessInterval ETV
vector 98 DatabaseNetwork.user[98] AccessInterval ETV
vector 99 DatabaseNetwork.user[99] AccessInterval ETV
vector 100 DatabaseNetwork.user[4] ReadAccesses ETV
vector 101 DatabaseNetwork.user[4] WaitTime ETV
vector 102 DatabaseNetwork.user[76] ReadAccesses ETV
vector 103 DatabaseNetwork.user[76] WaitTime ETV
vector 104 DatabaseNetwork.user[28] ReadAccesses ETV
vector 105 DatabaseNetwork.user[28] WaitTime ETV
vector 106 DatabaseNetwork.user[77] ReadAccesses ETV
vector 107 DatabaseNetwork.user[77] WaitTime ETV
vector 108 DatabaseNetwork.user[54] ReadAccesses ETV
vector 109 DatabaseNetwork.user[54] WaitTime ETV
vector 110 DatabaseNetwork.user[57] ReadAccesses ETV
vector 111 DatabaseNetwork.user[57] WaitTime ETV
vector 112 DatabaseNetwork.user[89] ReadAccesses ETV
vector 113 DatabaseNetwork.user[89] WaitTime ETV
vector 114 DatabaseNetwork.user[52] ReadAccesses ETV
vector 115 DatabaseNetwork.user[52] WaitTime ETV
vector 116 DatabaseNetwork.user[10] ReadAccesses ETV
vector 117 DatabaseNetwork.user[45] ReadAccesses ETV
vector 118 DatabaseNetwork.user[93] WriteAccesses ETV
vector 119 DatabaseNetwork.user[10] WaitTime ETV
vector 120 DatabaseNetwork.user[45] WaitTime ETV
vector 121 DatabaseNetwork.user[60] WriteAccesses ETV
vector 122 DatabaseNetwork.user[93] WaitTime ETV
vector 123 DatabaseNetwork.user[60] WaitTime ETV
vector 124 DatabaseNetwork.user[88] ReadAccesses ETV
vector 125 DatabaseNetwork.user[88] WaitTime ETV
vector 126 DatabaseNetwork.user[97] WriteAccesses ETV
vector 127 DatabaseNetwork.user[97] WaitTime ETV
vector 128 DatabaseNetwork.user[5] ReadAccesses ETV
vector 129 DatabaseNetwork.user[98] WriteAccesses ETV
vector 130 DatabaseNetwork.user[5] WaitTime ETV
vector 131 DatabaseNetwork.user[98] WaitTime ETV
vector 132 DatabaseNetwork.user[36] WriteAccesses ETV
vector 133 DatabaseNetwork.user[71] ReadAccesses ETV
vector 134 DatabaseNetwork.user[36] WaitTime ETV
vector 135 DatabaseNetwork.user[71] WaitTime ETV
vector 136 DatabaseNetwork.user[8] WriteAccesses ETV
vector 137 DatabaseNetwork.user[8] WaitTime ETV
vector 138 DatabaseNetwork.user[56] WriteAccesses ETV
vector 139 DatabaseNetwork.user[56] WaitTime ETV
vector 140 DatabaseNetwork.user[12] ReadAccesses ETV
vector 141 DatabaseNetwork.user[12] WaitTime ETV
vector 142 DatabaseNetwork.user[67] ReadAccesses ETV
vector 143 DatabaseNetwork.user[38] WriteAccesses ETV
vector 144 DatabaseNetwork.user[67] WaitTime ETV
vector 145 DatabaseNetwork.user[38] WaitTime ETV
vector 146 DatabaseNetwork.user[24] ReadAccesses ETV
vector 147 DatabaseNetwork.user[24] WaitTime ETV
vector 148 DatabaseNetwork.user[87] WriteAccesses ETV
vector 149 DatabaseNetwork.user[87] WaitTime ETV
vector 150 DatabaseNetwork.user[88] WriteAccesses ETV
vector 151 DatabaseNetwork.user[27] ReadAccesses ETV
vector 152 DatabaseNetwork.user[27] WaitTime ETV
vector 153 DatabaseNetwork.user[9] WriteAccesses ETV
vector 154 DatabaseNetwork.user[9] WaitTime ETV
vector 155 DatabaseNetwork.user[36] ReadAccesses ETV
vector 156 DatabaseNetwork.user[55] WriteAccesses ETV
vector 157 DatabaseNetwork.user[55] WaitTime ETV
vector 158 DatabaseNetwork.user[84] ReadAccesses ETV
vector 159 DatabaseNetwork.user[84] WaitTime ETV
vector 160 DatabaseNetwork.user[96] ReadAccesses ETV
vector 161 DatabaseNetwork.user[69] ReadAccesses ETV
vector 162 DatabaseNetwork.user[96] WaitTime ETV
vector 163 DatabaseNetwork.user[69] WaitTime ETV
vector 164 DatabaseNetwork.user[94] ReadAccesses ETV
vector 165 DatabaseNetwork.user[94] WaitTime ETV
vector 166 DatabaseNetwork.user[83] ReadAccesses ETV
vector 167 DatabaseNetwork.user[83] WaitTime ETV
vector 168 DatabaseNetwork.user[6] WriteAccesses ETV
vector 169 DatabaseNetwork.user[6] WaitTime ETV
vector 170 DatabaseNetwork.user[21] ReadAccesses ETV
vector 171 DatabaseNetwork.user[44] ReadAccesses ETV
vector 172 DatabaseNetwork.user[70] ReadAccesses ETV
vector 173 DatabaseNetwork.user[21] WaitTime ETV
vector 174 DatabaseNetwork.user[44] WaitTime ETV
vector 175 DatabaseNetwork.user[70] WaitTime ETV
vector 176 DatabaseNetwork.user[6] ReadAccesses ETV
vector 177 DatabaseNetwork.user[14] ReadAccesses ETV
vector 178 DatabaseNetwork.user[14] WaitTime ETV
vector 179 DatabaseNetwork.user[8] ReadAccesses ETV
vector 180 DatabaseNetwork.user[13] ReadAccesses ETV
vector 181 DatabaseNetwork.user[13] WaitTime ETV
vector 182 DatabaseNetwork.user[11] ReadAccesses ETV
vector 183 DatabaseNetwork.user[16] ReadAccesses ETV
vector 184 DatabaseNetwork.user[21] WriteAccesses ETV
vector 185 DatabaseNetwork.user[11] WaitTime ETV
vector 186 DatabaseNetwork.user[16] WaitTime ETV
vector 187 DatabaseNetwork.user[65] ReadAccesses ETV
vector 188 DatabaseNetwork.user[75] WriteAccesses ETV
vector 189 DatabaseNetwork.user[65] WaitTime ETV
vector 190 DatabaseNetwork.user[75] WaitTime ETV
vector 191 DatabaseNetwork.user[0] ReadAccesses ETV
vector 192 DatabaseNetwork.user[32] WriteAccesses ETV
vector 193 DatabaseNetwork.user[20] ReadAccesses ETV
vector 194 DatabaseNetwork.user[0] WaitTime ETV
vector 195 DatabaseNetwork.user[32] WaitTime ETV
vector 196 DatabaseNetwork.user[62] ReadAccesses ETV
vector 197 DatabaseNetwork.user[20] WaitTime ETV
vector 198 DatabaseNetwork.user[62] WaitTime ETV
vector 199 DatabaseNetwork.user[35] ReadAccesses ETV
vector 200 DatabaseNetwork.user[35] WaitTime ETV
vector 201 DatabaseNetwork.user[32] ReadAccesses ETV
vector 202 DatabaseNetwork.user[75] ReadAccesses ETV
vector 203 DatabaseNetwork.user[25] ReadAccesses ETV
vector 204 DatabaseNetwork.user[98] ReadAccesses ETV
vector 205 DatabaseNetwork.user[85] WriteAccesses ETV
vector 206 DatabaseNetwork.user[25] WaitTime ETV
vector 207 DatabaseNetwork.user[90] ReadAccesses ETV
vector 208 DatabaseNetwork.user[85] WaitTime ETV
vector 209 DatabaseNetwork.user[90] WaitTime ETV
vector 210 DatabaseNetwork.user[97] ReadAccesses ETV
vector 211 DatabaseNetwork.user[33] ReadAccesses ETV
vector 212 DatabaseNetwork.user[33] WaitTime ETV
vector 213 DatabaseNetwork.user[27] WriteAccesses ETV
vector 214 DatabaseNetwork.user[91] ReadAccesses ETV
vector 215 DatabaseNetwork.user[91] WaitTime ETV
vector 216 DatabaseNetwork.user[47] ReadAccesses ETV
vector 217 DatabaseNetwork.user[47] WaitTime ETV
vector 218 DatabaseNetwork.user[23] ReadAccesses ETV
vector 219 DatabaseNetwork.user[99] ReadAccesses ETV
vector 220 DatabaseNetwork.user[23] WaitTime ETV
vector 221 DatabaseNetwork.user[99] WaitTime ETV
vector 222 DatabaseNetwork.user[66] WriteAccesses ETV
vector 223 DatabaseNetwork.user[29] ReadAccesses ETV
vector 224 DatabaseNetwork.user[66] WaitTime ETV
vector 225 DatabaseNetwork.user[52] WriteAccesses ETV
vector 226 DatabaseNetwork.user[11] WriteAccesses ETV
vector 227 DatabaseNetwork.user[29] WaitTime ETV
vector 228 DatabaseNetwork.user[18] ReadAccesses ETV
vector 229 DatabaseNetwork.user[87] ReadAccesses ETV
vector 230 DatabaseNetwork.user[18] WaitTime ETV
vector 231 DatabaseNetwork.user[34] ReadAccesses ETV
vector 232 DatabaseNetwork.user[34] WaitTime ETV
vector 233 DatabaseNetwork.user[60] ReadAccesses ETV
vector 234 DatabaseNetwork.user[61] ReadAccesses ETV
vector 235 DatabaseNetwork.user[61] WaitTime ETV
vector 236 DatabaseNetwork.user[61] WriteAccesses ETV
vector 237 DatabaseNetwork.user[79] WriteAccesses ETV
vector 238 DatabaseNetwork.user[79] WaitTime ETV
vector 239 DatabaseNetwork.user[33] WriteAccesses ETV
vector 240 DatabaseNetwork.user[79] ReadAccesses ETV
vector 241 DatabaseNetwork.user[62] WriteAccesses ETV
vector 242 DatabaseNetwork.user[81] WriteAccesses ETV
vector 243 DatabaseNetwork.user[81] WaitTime ETV
vector 244 DatabaseNetwork.user[15] ReadAccesses ETV
vector 245 DatabaseNetwork.user[30] ReadAccesses ETV
vector 246 DatabaseNetwork.user[59] ReadAccesses ETV
vector 247 DatabaseNetwork.user[15] WaitTime ETV
vector 248 DatabaseNetwork.user[63] ReadAccesses ETV
vector 249 DatabaseNetwork.user[30] WaitTime ETV
vector 250 DatabaseNetwork.user[59] WaitTime ETV
vector 251 DatabaseNetwork.user[63] WaitTime ETV
vector 252 DatabaseNetwork.user[4] WriteAccesses ETV
vector 253 DatabaseNetwork.user[22] ReadAccesses ETV
vector 254 DatabaseNetwork.user[72] ReadAccesses ETV
vector 255 DatabaseNetwork.user[22] WaitTime ETV
vector 256 DatabaseNetwork.user[72] WaitTime ETV
vector 257 DatabaseNetwork.user[44] WriteAccesses ETV
vector 258 DatabaseNetwork.user[68] WriteAccesses ETV
vector 259 DatabaseNetwork.user[46] ReadAccesses ETV
vector 260 DatabaseNetwork.user[68] ReadAccesses ETV
vector 261 DatabaseNetwork.user[68] WaitTime ETV
vector 262 DatabaseNetwork.user[46] WaitTime ETV
vector 263 DatabaseNetwork.user[41] ReadAccesses ETV
vector 264 DatabaseNetwork.user[41] WaitTime ETV
vector 265 DatabaseNetwork.user[57] WriteAccesses ETV
vector 266 DatabaseNetwork.user[41] WriteAccesses ETV
vector 267 DatabaseNetwork.user[2] ReadAccesses ETV
vector 268 DatabaseNetwork.user[2] WaitTime ETV
vector 269 DatabaseNetwork.user[55] ReadAccesses ETV
vector 270 DatabaseNetwork.user[96] WriteAccesses ETV
vector 271 DatabaseNetwork.user[82] WriteAccesses ETV
vector 272 DatabaseNetwork.user[82] WaitTime ETV
vector 273 DatabaseNetwork.user[78] ReadAccesses ETV
vector 274 DatabaseNetwork.user[78] WaitTime ETV
vector 275 DatabaseNetwork.user[39] ReadAccesses ETV
vector 276 DatabaseNetwork.user[39] WaitTime ETV
vector 277 DatabaseNetwork.user[73] ReadAccesses ETV
vector 278 DatabaseNetwork.user[73] WaitTime ETV
vector 279 DatabaseNetwork.user[71] WriteAccesses ETV
vector 280 DatabaseNetwork.user[86] ReadAccesses ETV
vector 281 DatabaseNetwork.user[86] WaitTime ETV
vector 282 DatabaseNetwork.user[56] ReadAccesses ETV
vector 283 DatabaseNetwork.user[40] ReadAccesses ETV
vector 284 DatabaseNetwork.user[40] WaitTime ETV
vector 285 DatabaseNetwork.user[43] ReadAccesses ETV
vector 286 DatabaseNetwork.user[43] WaitTime ETV
vector 287 DatabaseNetwork.user[65] WriteAccesses ETV
vector 288 DatabaseNetwork.user[29] WriteAccesses ETV
vector 289 DatabaseNetwork.user[78] WriteAccesses ETV
vector 290 DatabaseNetwork.user[34] WriteAccesses ETV
vector 291 DatabaseNetwork.user[51] WriteAccesses ETV
vector 292 DatabaseNetwork.user[53] WriteAccesses ETV
vector 293 DatabaseNetwork.user[51] WaitTime ETV
vector 294 DatabaseNetwork.user[9] ReadAccesses ETV
vector 295 DatabaseNetwork.user[53] WaitTime ETV
vector 296 DatabaseNetwork.user[74] ReadAccesses ETV
vector 297 DatabaseNetwork.user[74] WaitTime ETV
vector 298 DatabaseNetwork.user[19] ReadAccesses ETV
vector 299 DatabaseNetwork.user[19] WaitTime ETV
vector 300 DatabaseNetwork.user[39] WriteAccesses ETV
vector 301 DatabaseNetwork.user[86] WriteAccesses ETV
vector 302 DatabaseNetwork.user[49] WriteAccesses ETV
vector 303 DatabaseNetwork.user[49] WaitTime ETV
vector 304 DatabaseNetwork.user[0] WriteAccesses ETV
vector 305 DatabaseNetwork.user[49] ReadAccesses ETV
vector 306 DatabaseNetwork.user[48] ReadAccesses ETV
vector 307 DatabaseNetwork.user[48] WaitTime ETV
vector 308 DatabaseNetwork.user[26] WriteAccesses ETV
vector 309 DatabaseNetwork.user[58] ReadAccesses ETV
vector 310 DatabaseNetwork.user[26] WaitTime ETV
vector 311 DatabaseNetwork.user[58] WaitTime ETV
vector 312 DatabaseNetwork.user[47] WriteAccesses ETV
vector 313 DatabaseNetwork.user[46] WriteAccesses ETV
vector 314 DatabaseNetwork.user[50] WriteAccesses ETV
vector 315 DatabaseNetwork.user[50] WaitTime ETV
vector 316 DatabaseNetwork.user[95] WriteAccesses ETV
vector 317 DatabaseNetwork.user[95] WaitTime ETV
vector 318 DatabaseNetwork.user[92] ReadAccesses ETV
vector 319 DatabaseNetwork.user[92] WaitTime ETV
vector 320 DatabaseNetwork.user[35] WriteAccesses ETV
vector 321 DatabaseNetwork.user[31] ReadAccesses ETV
vector 322 DatabaseNetwork.user[31] WaitTime ETV
vector 323 DatabaseNetwork.user[69] WriteAccesses ETV
vector 324 DatabaseNetwork.user[72] WriteAccesses ETV
vector 325 DatabaseNetwork.user[89] WriteAccesses ETV
vector 326 DatabaseNetwork.user[94] WriteAccesses ETV
vector 327 DatabaseNetwork.user[3] ReadAccesses ETV
vector 328 DatabaseNetwork.user[3] WaitTime ETV
vector 329 DatabaseNetwork.user[17] ReadAccesses ETV
vector 330 DatabaseNetwork.user[17] WaitTime ETV
vector 331 DatabaseNetwork.user[77] WriteAccesses ETV
vector 332 DatabaseNetwork.user[45] WriteAccesses ETV
vector 333 DatabaseNetwork.user[81] ReadAccesses ETV
vector 334 DatabaseNetwork.user[82] ReadAccesses ETV
vector 335 DatabaseNetwork.user[37] ReadAccesses ETV
vector 336 DatabaseNetwork.user[37] WaitTime ETV
vector 337 DatabaseNetwork.user[85] ReadAccesses ETV
vector 338 DatabaseNetwork.user[90] WriteAccesses ETV
vector 339 DatabaseNetwork.user[93] ReadAccesses ETV
vector 340 DatabaseNetwork.user[23] WriteAccesses ETV
vector 341 DatabaseNetwork.user[64] ReadAccesses ETV
vector 342 DatabaseNetwork.user[64] WaitTime ETV
vector 343 DatabaseNetwork.user[38] ReadAccesses ETV
vector 344 DatabaseNetwork.user[22] WriteAccesses ETV
vector 345 DatabaseNetwork.user[66] ReadAccesses ETV
vector 346 DatabaseNetwork.user[25] WriteAccesses ETV
vector 347 DatabaseNetwork.user[42] ReadAccesses ETV
vector 348 DatabaseNetwork.user[42] WaitTime ETV
vector 349 DatabaseNetwork.user[26] ReadAccesses ETV
vector 350 DatabaseNetwork.user[16] WriteAccesses ETV
vector 351 DatabaseNetwork.user[48] WriteAccesses ETV
vector 352 DatabaseNetwork.user[70] WriteAccesses ETV
vector 353 DatabaseNetwork.user[37] WriteAccesses ETV
vector 354 DatabaseNetwork.user[84] WriteAccesses ETV
vector 355 DatabaseNetwork.user[20] WriteAccesses ETV
vector 356 DatabaseNetwork.user[95] ReadAccesses ETV
vector 357 DatabaseNetwork.user[18] WriteAccesses ETV
vector 358 DatabaseNetwork.user[50] ReadAccesses ETV
vector 359 DatabaseNetwork.user[17] WriteAccesses ETV
vector 360 DatabaseNetwork.user[10] WriteAccesses ETV
vector 361 DatabaseNetwork.user[80] ReadAccesses ETV
vector 362 DatabaseNetwork.user[80] WaitTime ETV
vector 363 DatabaseNetwork.user[24] WriteAccesses ETV
vector 364 DatabaseNetwork.user[92] WriteAccesses ETV
vector 365 DatabaseNetwork.user[28] WriteAccesses ETV
vector 366 DatabaseNetwork.user[53] ReadAccesses ETV
vector 367 DatabaseNetwork.user[63] WriteAccesses ETV
vector 368 DatabaseNetwork.user[30] WriteAccesses ETV
vector 369 DatabaseNetwork.user[67] WriteAccesses ETV
vector 370 DatabaseNetwork.user[83] WriteAccesses ETV
vector 371 DatabaseNetwork.user[1] WriteAccesses ETV
vector 372 DatabaseNetwork.user[1] WaitTime ETV
vector 373 DatabaseNetwork.user[12] WriteAccesses ETV
vector 374 DatabaseNetwork.user[99] WriteAccesses ETV
vector 375 DatabaseNetwork.user[58] WriteAccesses ETV
vector 376 DatabaseNetwork.user[80] WriteAccesses ETV
vector 377 DatabaseNetwork.user[74] WriteAccesses ETV
vector 378 DatabaseNetwork.user[7] ReadAccesses ETV
vector 379 DatabaseNetwork.user[7] WaitTime ETV
vector 380 DatabaseNetwork.user[1] ReadAccesses ETV
vector 381 DatabaseNetwork.user[5] WriteAccesses ETV
vector 382 DatabaseNetwork.user[54] WriteAccesses ETV
vector 383 DatabaseNetwork.user[40] WriteAccesses ETV
vector 384 DatabaseNetwork.user[91] WriteAccesses ETV
vector 385 DatabaseNetwork.user[43] WriteAccesses ETV
vector 386 DatabaseNetwork.user[2] WriteAccesses ETV
vector 387 DatabaseNetwork.user[3] WriteAccesses ETV
vector 388 DatabaseNetwork.user[7] WriteAccesses ETV
vector 389 DatabaseNetwork.user[64] WriteAccesses ETV
vector 390 DatabaseNetwork.user[51] ReadAccesses ETV
vector 391 DatabaseNetwork.user[73] WriteAccesses ETV
vector 392 DatabaseNetwork.user[76] WriteAccesses ETV
vector 393 DatabaseNetwork.user[14] WriteAccesses ETV
vector 394 DatabaseNetwork.user[15] WriteAccesses ETV
vector 395 DatabaseNetwork.user[42] WriteAccesses ETV
vector 396 DatabaseNetwork.user[31] WriteAccesses ETV
vector 397 DatabaseNetwork.user[19] WriteAccesses ETV
vector 398 DatabaseNetwork.user[59] WriteAccesses ETV
vector 399 DatabaseNetwork.user[13] WriteAccesses ETV
0	22052 20635 0 199119 0 9995.69809300645 490 0.089319337022764 118.06429065066 10012.332512539 413275.92761474
1	42687 21249 0 197537 0 9912.630840438007 504 0.015855474937083 137.31152347054 10021.573653186 400922.86319065
2	63936 20385 0 198985 0 9989.6030137811 484 0.031844005926585 118.96523895489 10001.105340215 403034.15768967
3	84321 20748 0 199053 0 9991.634193361996 493 0.047141180677033 112.85275766353 10053.440678911 403764.25364095
4	105069 21956 0 198453 0 9962.711434960514 522 0.0022877524501596 168.15603931475 10009.769044825 389478.39735792
5	127025 21480 0 198481 0 9963.955348213564 511 0.13950947711019 128.99670643872 10006.706592367 385175.05544787
6	148505 20823 0 199023 0 9990.506488092907 494 0.020866145854828 129.76812879862 10030.663358264 419653.61680217
7	169328 20658 0 197781 0 9929.574482449881 490 0.037411761359593 167.19625506098 10013.389573792 445126.13650324
8	189986 21072 0 199179 0 9999.52568284208 500 0.050214178315973 139.19842388495 10004.156229344 400091.87381301
9	211058 21227 0 199009 0 9990.360970803472 505 0.051234964984868 118.641825108 10011.858986558 400459.51764869
10	232285 21549 0 198885 0 9985.709379092919 500 0.021926290959273 112.00659680647 10052.442995481 416703.39687699
11	253834 21332 0 199113 0 9995.626576648536 495 0.13676229604319 141.04469959493 10045.346175274 422055.6785595
12	275166 21640 0 198921 0 9987.083085188423 502 0.031380891463851 113.92273864877 10043.456666859 379857.34786912
13	296806 20714 0 199103 0 9994.918079078753 480 0.022314466892583 119.92262245112 10064.406064149 402548.15785947
14	317520 21462 0 199019 0 9990.501509049701 498 0.0091809521365116 99.635240415982 10007.654743256 388152.91849068
15	338982 22337 0 198423 0 9961.303627685803 518 0.067299033941683 107.23965644907 10000.230141304 375462.10248691
16	361319 21818 0 198905 0 9986.218567075571 506 0.0074573910385494 143.74399646172 10033.672973375 389500.39184071
17	383137 22927 0 198993 0 9989.942180444279 531 0.05614477027717 138.4521635458 10020.635940194 384182.79976959
18	406064 22397 0 199045 0 9991.017928298368 520 0.045810024963973 130.28057141429 10007.910561539 377862.6193901
19	428461 22106 0 199109 0 9995.129080188964 512 0.006107591310558 161.17786311401 10028.170381887 399680.86777194
20	450567 21129 0 198657 0 9975.202599881202 490 0.039611814825651 121.85422057902 10010.39162821 385132.53553833
21	471696 19507 0 199097 0 9994.753055043788 453 0.065131331079894 140.83103141144 10009.300563252 422458.02472903
22	491203 23007 0 198831 0 9984.043403413477 533 0.024017853381134 122.40810658407 10007.802879705 384372.53639663
23	514210 22029 0 198731 0 9978.3213242852 510 0.02241482661728 128.23940977206 10003.104109303 395556.60528584
24	536239 19765 0 198397 0 9960.115203312298 459 0.25731029063045 160.72965391105 10027.328428718 404932.90228858
25	556004 21052 0 199165 0 9998.886689054826 488 0.084177565853791 108.17168081844 10026.559685072 399168.3909337
26	577056 20117 0 198433 0 9961.899506884843 467 0.011645121980799 130.01389366191 10005.476030681 421178.67026228
27	597173 19924 0 198769 0 9980.228268433857 463 0.0095190778226772 155.38097481153 10020.683794135 446668.06926631
28	617097 22186 0 198829 0 9984.041416405552 514 0.023151116350428 129.55492924998 10037.443595136 390354.84989354
29	639283 19780 0 199017 0 9990.469266044189 459 0.019664575231794 136.07369414876 10003.958215884 404270.85318499
30	659063 22235 0 198845 0 9984.33780881859 515 0.0051737329671126 100.97642656625 10018.788337667 369717.45833431
31	681298 21037 0 199001 0 9990.127713533403 487 0.02172068215921 124.10925927791 10014.345928831 435288.35248395
32	702335 24513 0 197933 0 9936.791056275195 569 0.0058924517993854 158.89433544011 10095.685391715 350892.74711274
33	726848 21196 0 198637 0 9973.424295742763 492 0.011596222424663 174.67491564188 10092.727667588 427351.72489999
34	748044 20468 0 198877 0 9985.179406162087 475 0.11809529053949 125.26011456078 10010.084454044 414159.36310418
35	768512 22107 0 197913 0 9935.797376173173 512 0.018087900069501 115.46096260417 10051.258338777 394639.1691112
36	790619 23047 0 198965 0 9988.845516178612 535 0.0024496727425265 131.09545797795 10025.928544258 397150.87068938
37	813666 20542 0 198981 0 9989.232901533915 476 0.014592967992198 138.69600834884 10043.112969598 423038.50569776
38	834208 21616 0 199065 0 9992.58319672027 502 0.021796690879636 130.46321707998 10006.143236994 395577.58287291
39	855824 18721 0 198715 0 9977.338456746092 434 0.048681697939541 133.19947210768 10001.81138028 446000.67521088
40	874545 21328 0 198661 0 9975.512642353742 495 0.0013859072311316 129.28180204498 10000.916210204 389816.12814054
41	895873 21275 0 199183 0 9999.549634910333 493 0.02023757465175 157.08335234806 10023.01374311 407473.47984545
42	917148 21382 0 198617 0 9971.68845132768 495 0.044405336362514 129.43288263537 10016.890960973 375501.63544717
43	938530 21991 0 199139 0 9996.32128591086 510 0.093041881034013 150.30015386236 10016.331354046 381654.20934615
44	960521 21889 0 199047 0 9991.025127703148 508 0.018667859742578 96.847219590786 10011.49452959 375303.62696036
45	982410 23139 0 199073 0 9992.891230711553 538 0.030665089721895 156.35626683992 10042.477430165 371040.84340608
46	1005549 22601 0 198999 0 9990.08867287364 524 0.017120130889779 144.06945097505 10005.294939082 407384.92860368
47	1028150 20607 0 197967 0 9939.006452383721 478 0.0721487399285 127.85011645821 10001.828851741 414837.14656914
48	1048757 22201 0 198923 0 9987.17170288352 514 0.053942664030591 147.21994498841 10007.250356179 396853.77817675
49	1070958 23915 0 198913 0 9986.840107099937 554 0.0048817737732884 129.28347243828 10056.303598528 374952.56522552
50	1094873 21449 0 199041 0 9990.911467559067 497 0.048532510453775 123.29121176501 10012.982659309 398019.3315387
51	1116322 21728 0 198897 0 9986.064033060718 504 0.036966119851284 116.17496978233 10019.354154619 399009.64151163
52	1138050 21297 0 198889 0 9985.938233807041 494 0.010699091710082 143.99417922588 10006.669249335 401719.53800444
53	1159347 21571 0 199171 0 9999.163046623863 500 0.046315947046238 128.62064939533 10029.714983374 389070.79335328
54	1180918 23053 0 199185 0 9999.593602174937 534 0.013778680126538 147.56704718234 10053.171165558 409863.04830704
55	1203971 20733 0 198641 0 9973.547164702886 480 0.027648672527871 136.08108950425 10024.714611739 446056.80804723
56	1224704 21981 0 198793 0 9981.578347858859 510 0.00020736470285029 135.31431780764 10003.718592035 392119.66104566
57	1246685 21753 0 199169 0 9999.116997980701 504 0.04482422403855 117.59160814295 10007.427985145 383424.22795789
58	1268438 22487 0 198425 0 9961.356446614232 520 0.012515884911591 102.00044003058 10026.469855423 366856.53406126
59	1290925 21227 0 198765 0 9979.854689063711 492 0.019706773062337 129.94208736473 10071.531747007 405988.64128356
60	1312152 20592 0 198813 0 9982.40145765763 477 0.010371363658346 189.74195071835 10030.907382617 465914.60233502
61	1332744 20535 0 199085 0 9993.845748763853 476 0.059105702851395 127.98898938992 10012.189495025 411907.46900623
62	1353279 19985 0 198189 0 9949.474443242647 465 0.054492403260907 184.22710797948 10008.716528055 446107.62445064
63	1373264 21506 0 198861 0 9984.657291835737 499 0.026255749994766 114.76233753134 10005.53982747 388143.21541886
64	1394770 21553 0 199013 0 9990.443718406636 499 0.0073624913675626 145.86844258481 10020.197355329 390822.52413392
65	1416323 20880 0 199129 0 9995.908519023484 484 0.02964403258305 135.0801409427 10003.822886402 396913.54654638
66	1437203 21371 0 198009 0 9942.131904524058 496 0.012288943894408 106.79212204798 10038.116199052 387890.42833588
67	1458574 21688 0 198401 0 9960.173226187082 502 0.034940622550207 150.63219787254 10005.821763159 399690.92315954