file 5951554 1767628864                                         
version 3
run Uniform-58-20260105-17:01:04-25051
attr configname Uniform
attr datetime 20260105-17:01:04
attr datetimef 20260105-170104
attr experiment Uniform
attr inifile omnetpp.ini
attr iterationvars "$N=100, $p=0.5"
attr iterationvarsd N=100/p=0.5
attr iterationvarsf N=100,p=0.5-
attr measurement "$N=100, $p=0.5"
attr network progetto.DatabaseNetwork
attr processid 25051
attr repetition 3
attr replication #3
attr resultdir results
attr runnumber 58
attr seedset 3
itervar N 100
itervar p 0.5
config description "Uniform distribution - varia N e p"
config *.user[*].tableDistribution "\"uniform\""
config *.numUsers 100
config *.user[*].readProbability 0.5
config network progetto.DatabaseNetwork
config sim-time-limit 10000s
config cpu-time-limit 3600s
config repeat 5
config seed-set 3
config output-vector-file "results/Uniform-$N=100, $p=0.5-3.vec"
config output-scalar-file "results/Uniform-$N=100, $p=0.5-3.sca"
config result-dir results
config **.vector-recording true
config **.scalar-recording true
config *.numTables 20
config *.user[*].lambda 0.05
config *.user[*].serviceTime 0.1s

vector 0 DatabaseNetwork.user[0] AccessInterval ETV
vector 1 DatabaseNetwork.user[1] AccessInterval ETV
vector 2 DatabaseNetwork.user[2] AccessInterval ETV
vector 3 DatabaseNetwork.user[3] AccessInterval ETV
vector 4 DatabaseNetwork.user[4] AccessInterval ETV
vector 5 DatabaseNetwork.user[5] AccessInterval ETV
vector 6 DatabaseNetwork.user[6] AccessInterval ETV
vector 7 DatabaseNetwork.user[7] AccessInterval ETV
vector 8 DatabaseNetwork.user[8] AccessInterval ETV
vector 9 DatabaseNetwork.user[9] AccessInterval ETV
vector 10 DatabaseNetwork.user[10] AccessInterval ETV
vector 11 DatabaseNetwork.user[11] AccessInterval ETV
vector 12 DatabaseNetwork.user[12] AccessInterval ETV
vector 13 DatabaseNetwork.user[13] AccessInterval ETV
vector 14 DatabaseNetwork.user[14] AccessInterval ETV
vector 15 DatabaseNetwork.user[15] AccessInterval ETV
vector 16 DatabaseNetwork.user[16] AccessInterval ETV
vector 17 DatabaseNetwork.user[17] AccessInterval ETV
vector 18 DatabaseNetwork.user[18] AccessInterval ETV
vector 19 DatabaseNetwork.user[19] AccessInterval ETV
vector 20 DatabaseNetwork.user[20] AccessInterval ETV
vector 21 DatabaseNetwork.user[21] AccessInterval ETV
vector 22 DatabaseNetwork.user[22] AccessInterval ETV
vector 23 DatabaseNetwork.user[23] AccessInterval ETV
vector 24 DatabaseNetwork.user[24] AccessInterval ETV
vector 25 DatabaseNetwork.user[25] AccessInterval ETV
vector 26 DatabaseNetwork.user[26] AccessInterval ETV
vector 27 DatabaseNetwork.user[27] AccessInterval ETV
vector 28 DatabaseNetwork.user[28] AccessInterval ETV
vector 29 DatabaseNetwork.user[29] AccessInterval ETV
vector 30 DatabaseNetwork.user[30] AccessInterval ETV
vector 31 DatabaseNetwork.user[31] AccessInterval ETV
vector 32 DatabaseNetwork.user[32] AccessInterval ETV
vector 33 DatabaseNetwork.user[33] AccessInterval ETV
vector 34 DatabaseNetwork.user[34] AccessInterval ETV
vector 35 DatabaseNetwork.user[35] AccessInterval ETV
vector 36 DatabaseNetwork.user[36] AccessInterval ETV
vector 37 DatabaseNetwork.user[37] AccessInterval ETV
vector 38 DatabaseNetwork.user[38] AccessInterval ETV
vector 39 DatabaseNetwork.user[39] AccessInterval ETV
vector 40 DatabaseNetwork.user[40] AccessInterval ETV
vector 41 DatabaseNetwork.user[41] AccessInterval ETV
vector 42 DatabaseNetwork.user[42] AccessInterval ETV
vector 43 DatabaseNetwork.user[43] AccessInterval ETV
vector 44 DatabaseNetwork.user[44] AccessInterval ETV
vector 45 DatabaseNetwork.user[45] AccessInterval ETV
vector 46 DatabaseNetwork.user[46] AccessInterval ETV
vector 47 DatabaseNetwork.user[47] AccessInterval ETV
vector 48 DatabaseNetwork.user[48] AccessInterval ETV
vector 49 DatabaseNetwork.user[49] AccessInterval ETV
vector 50 DatabaseNetwork.user[50] AccessInterval ETV
vector 51 DatabaseNetwork.user[51] AccessInterval ETV
vector 52 DatabaseNetwork.user[52] AccessInterval ETV
vector 53 DatabaseNetwork.user[53] AccessInterval ETV
vector 54 DatabaseNetwork.user[54] AccessInterval ETV
vector 55 DatabaseNetwork.user[55] AccessInterval ETV
vector 56 DatabaseNetwork.user[56] AccessInterval ETV
vector 57 DatabaseNetwork.user[57] AccessInterval ETV
vector 58 DatabaseNetwork.user[58] AccessInterval ETV
vector 59 DatabaseNetwork.user[59] AccessInterval ETV
vector 60 DatabaseNetwork.user[60] AccessInterval ETV
vector 61 DatabaseNetwork.user[61] AccessInterval ETV
vector 62 DatabaseNetwork.user[62] AccessInterval ETV
vector 63 DatabaseNetwork.user[63] AccessInterval ETV
vector 64 DatabaseNetwork.user[64] AccessInterval ETV
vector 65 DatabaseNetwork.user[65] AccessInterval ETV
vector 66 DatabaseNetwork.user[66] AccessInterval ETV
vector 67 DatabaseNetwork.user[67] AccessInterval ETV
vector 68 DatabaseNetwork.user[68] AccessInterval ETV
vector 69 DatabaseNetwork.user[69] AccessInterval ETV
vector 70 DatabaseNetwork.user[70] AccessInterval ETV
vector 71 DatabaseNetwork.user[71] AccessInterval ETV
vector 72 DatabaseNetwork.user[72] AccessInterval ETV
vector 73 DatabaseNetwork.user[73] AccessInterval ETV
vector 74 DatabaseNetwork.user[74] AccessInterval ETV
vector 75 DatabaseNetwork.user[75] AccessInterval ETV
vector 76 DatabaseNetwork.user[76] AccessInterval ETV
vector 77 DatabaseNetwork.user[77] AccessInterval ETV
vector 78 DatabaseNetwork.user[78] AccessInterval ETV
vector 79 DatabaseNetwork.user[79] AccessInterval ETV
vector 80 DatabaseNetwork.user[80] AccessInterval ETV
vector 81 DatabaseNetwork.user[81] AccessInterval ETV
vector 82 DatabaseNetwork.user[82] AccessInterval ETV
vector 83 DatabaseNetwork.user[83] AccessInterval ETV
vector 84 DatabaseNetwork.user[84] AccessInterval ETV
vector 85 DatabaseNetwork.user[85] AccessInterval ETV
vector 86 DatabaseNetwork.user[86] AccessInterval ETV
vector 87 DatabaseNetwork.user[87] AccessInterval ETV
vector 88 DatabaseNetwork.user[88] AccessInterval ETV
vector 89 DatabaseNetwork.user[89] AccessInterval ETV
vector 90 DatabaseNetwork.user[90] AccessInterval ETV
vector 91 DatabaseNetwork.user[91] AccessInterval ETV
vector 92 DatabaseNetwork.user[92] AccessInterval ETV
vector 93 DatabaseNetwork.user[93] AccessInterval ETV
vector 94 DatabaseNetwork.user[94] AccessInterval ETV
vector 95 DatabaseNetwork.user[95] AccessInterval ETV
vector 96 DatabaseNetwork.user[96] AccessInterval ETV
vector 97 DatabaseNetwork.user[97] AccessInterval ETV
vector 98 DatabaseNetwork.user[98] AccessInterval ETV
vector 99 DatabaseNetwork.user[99] AccessInterval ETV
vector 100 DatabaseNetwork.user[11] WriteAccesses ETV
vector 101 DatabaseNetwork.user[59] WriteAccesses ETV
vector 102 DatabaseNetwork.user[77] ReadAccesses ETV
vector 103 DatabaseNetwork.user[11] WaitTime ETV
vector 104 DatabaseNetwork.user[32] WriteAccesses ETV
vector 105 DatabaseNetwork.user[59] WaitTime ETV
vector 106 DatabaseNetwork.user[77] WaitTime ETV
vector 107 DatabaseNetwork.user[32] WaitTime ETV
vector 108 DatabaseNetwork.user[20] ReadAccesses ETV
vector 109 DatabaseNetwork.user[20] WaitTime ETV
vector 110 DatabaseNetwork.user[13] WriteAccesses ETV
vector 111 DatabaseNetwork.user[13] WaitTime ETV
vector 112 DatabaseNetwork.user[16] WriteAccesses ETV
vector 113 DatabaseNetwork.user[16] WaitTime ETV
vector 114 DatabaseNetwork.user[1] WriteAccesses ETV
vector 115 DatabaseNetwork.user[99] ReadAccesses ETV
vector 116 DatabaseNetwork.user[1] WaitTime ETV
vector 117 DatabaseNetwork.user[99] WaitTime ETV
vector 118 DatabaseNetwork.user[70] ReadAccesses ETV
vector 119 DatabaseNetwork.user[17] ReadAccesses ETV
vector 120 DatabaseNetwork.user[70] WaitTime ETV
vector 121 DatabaseNetwork.user[17] WaitTime ETV
vector 122 DatabaseNetwork.user[59] ReadAccesses ETV
vector 123 DatabaseNetwork.user[5] WriteAccesses ETV
vector 124 DatabaseNetwork.user[12] WriteAccesses ETV
vector 125 DatabaseNetwork.user[5] WaitTime ETV
vector 126 DatabaseNetwork.user[12] WaitTime ETV
vector 127 DatabaseNetwork.user[61] ReadAccesses ETV
vector 128 DatabaseNetwork.user[5] ReadAccesses ETV
vector 129 DatabaseNetwork.user[21] ReadAccesses ETV
vector 130 DatabaseNetwork.user[61] WaitTime ETV
vector 131 DatabaseNetwork.user[21] WaitTime ETV
vector 132 DatabaseNetwork.user[46] WriteAccesses ETV
vector 133 DatabaseNetwork.user[46] WaitTime ETV
vector 134 DatabaseNetwork.user[87] WriteAccesses ETV
vector 135 DatabaseNetwork.user[14] ReadAccesses ETV
vector 136 DatabaseNetwork.user[87] WaitTime ETV
vector 137 DatabaseNetwork.user[14] WaitTime ETV
vector 138 DatabaseNetwork.user[25] ReadAccesses ETV
vector 139 DatabaseNetwork.user[25] WaitTime ETV
vector 140 DatabaseNetwork.user[54] WriteAccesses ETV
vector 141 DatabaseNetwork.user[78] WriteAccesses ETV
vector 142 DatabaseNetwork.user[54] WaitTime ETV
vector 143 DatabaseNetwork.user[78] WaitTime ETV
vector 144 DatabaseNetwork.user[15] WriteAccesses ETV
vector 145 DatabaseNetwork.user[15] WaitTime ETV
vector 146 DatabaseNetwork.user[53] WriteAccesses ETV
vector 147 DatabaseNetwork.user[36] WriteAccesses ETV
vector 148 DatabaseNetwork.user[53] WaitTime ETV
vector 149 DatabaseNetwork.user[36] WaitTime ETV
vector 150 DatabaseNetwork.user[84] ReadAccesses ETV
vector 151 DatabaseNetwork.user[84] WaitTime ETV
vector 152 DatabaseNetwork.user[45] ReadAccesses ETV
vector 153 DatabaseNetwork.user[21] WriteAccesses ETV
vector 154 DatabaseNetwork.user[96] WriteAccesses ETV
vector 155 DatabaseNetwork.user[26] WriteAccesses ETV
vector 156 DatabaseNetwork.user[45] WaitTime ETV
vector 157 DatabaseNetwork.user[96] WaitTime ETV
vector 158 DatabaseNetwork.user[26] WaitTime ETV
vector 159 DatabaseNetwork.user[94] ReadAccesses ETV
vector 160 DatabaseNetwork.user[40] WriteAccesses ETV
vector 161 DatabaseNetwork.user[94] WaitTime ETV
vector 162 DatabaseNetwork.user[40] WaitTime ETV
vector 163 DatabaseNetwork.user[4] ReadAccesses ETV
vector 164 DatabaseNetwork.user[86] WriteAccesses ETV
vector 165 DatabaseNetwork.user[4] WaitTime ETV
vector 166 DatabaseNetwork.user[86] WaitTime ETV
vector 167 DatabaseNetwork.user[41] WriteAccesses ETV
vector 168 DatabaseNetwork.user[52] WriteAccesses ETV
vector 169 DatabaseNetwork.user[41] WaitTime ETV
vector 170 DatabaseNetwork.user[52] WaitTime ETV
vector 171 DatabaseNetwork.user[79] ReadAccesses ETV
vector 172 DatabaseNetwork.user[79] WaitTime ETV
vector 173 DatabaseNetwork.user[63] ReadAccesses ETV
vector 174 DatabaseNetwork.user[63] WaitTime ETV
vector 175 DatabaseNetwork.user[41] ReadAccesses ETV
vector 176 DatabaseNetwork.user[27] WriteAccesses ETV
vector 177 DatabaseNetwork.user[27] WaitTime ETV
vector 178 DatabaseNetwork.user[76] ReadAccesses ETV
vector 179 DatabaseNetwork.user[76] WaitTime ETV
vector 180 DatabaseNetwork.user[97] WriteAccesses ETV
vector 181 DatabaseNetwork.user[77] WriteAccesses ETV
vector 182 DatabaseNetwork.user[97] WaitTime ETV
vector 183 DatabaseNetwork.user[68] WriteAccesses ETV
vector 184 DatabaseNetwork.user[68] WaitTime ETV
vector 185 DatabaseNetwork.user[56] ReadAccesses ETV
vector 186 DatabaseNetwork.user[56] WaitTime ETV
vector 187 DatabaseNetwork.user[67] ReadAccesses ETV
vector 188 DatabaseNetwork.user[67] WaitTime ETV
vector 189 DatabaseNetwork.user[37] WriteAccesses ETV
vector 190 DatabaseNetwork.user[37] WaitTime ETV
vector 191 DatabaseNetwork.user[80] WriteAccesses ETV
vector 192 DatabaseNetwork.user[80] WaitTime ETV
vector 193 DatabaseNetwork.user[71] WriteAccesses ETV
vector 194 DatabaseNetwork.user[38] ReadAccesses ETV
vector 195 DatabaseNetwork.user[71] WaitTime ETV
vector 196 DatabaseNetwork.user[38] WaitTime ETV
vector 197 DatabaseNetwork.user[69] ReadAccesses ETV
vector 198 DatabaseNetwork.user[69] WaitTime ETV
vector 199 DatabaseNetwork.user[9] WriteAccesses ETV
vector 200 DatabaseNetwork.user[9] WaitTime ETV
vector 201 DatabaseNetwork.user[44] WriteAccesses ETV
vector 202 DatabaseNetwork.user[18] ReadAccesses ETV
vector 203 DatabaseNetwork.user[18] WaitTime ETV
vector 204 DatabaseNetwork.user[76] WriteAccesses ETV
vector 205 DatabaseNetwork.user[44] WaitTime ETV
vector 206 DatabaseNetwork.user[23] WriteAccesses ETV
vector 207 DatabaseNetwork.user[47] WriteAccesses ETV
vector 208 DatabaseNetwork.user[98] WriteAccesses ETV
vector 209 DatabaseNetwork.user[23] WaitTime ETV
vector 210 DatabaseNetwork.user[22] ReadAccesses ETV
vector 211 DatabaseNetwork.user[47] WaitTime ETV
vector 212 DatabaseNetwork.user[98] WaitTime ETV
vector 213 DatabaseNetwork.user[88] ReadAccesses ETV
vector 214 DatabaseNetwork.user[79] WriteAccesses ETV
vector 215 DatabaseNetwork.user[22] WaitTime ETV
vector 216 DatabaseNetwork.user[88] WaitTime ETV
vector 217 DatabaseNetwork.user[87] ReadAccesses ETV
vector 218 DatabaseNetwork.user[53] ReadAccesses ETV
vector 219 DatabaseNetwork.user[82] ReadAccesses ETV
vector 220 DatabaseNetwork.user[38] WriteAccesses ETV
vector 221 DatabaseNetwork.user[82] WaitTime ETV
vector 222 DatabaseNetwork.user[29] WriteAccesses ETV
vector 223 DatabaseNetwork.user[29] WaitTime ETV
vector 224 DatabaseNetwork.user[6] ReadAccesses ETV
vector 225 DatabaseNetwork.user[6] WaitTime ETV
vector 226 DatabaseNetwork.user[6] WriteAccesses ETV
vector 227 DatabaseNetwork.user[32] ReadAccesses ETV
vector 228 DatabaseNetwork.user[48] WriteAccesses ETV
vector 229 DatabaseNetwork.user[48] WaitTime ETV
vector 230 DatabaseNetwork.user[0] ReadAccesses ETV
vector 231 DatabaseNetwork.user[39] ReadAccesses ETV
vector 232 DatabaseNetwork.user[0] WaitTime ETV
vector 233 DatabaseNetwork.user[39] WaitTime ETV
vector 234 DatabaseNetwork.user[74] WriteAccesses ETV
vector 235 DatabaseNetwork.user[34] ReadAccesses ETV
vector 236 DatabaseNetwork.user[74] WaitTime ETV
vector 237 DatabaseNetwork.user[34] WaitTime ETV
vector 238 DatabaseNetwork.user[81] ReadAccesses ETV
vector 239 DatabaseNetwork.user[81] WaitTime ETV
vector 240 DatabaseNetwork.user[7] ReadAccesses ETV
vector 241 DatabaseNetwork.user[12] ReadAccesses ETV
vector 242 DatabaseNetwork.user[7] WaitTime ETV
vector 243 DatabaseNetwork.user[13] ReadAccesses ETV
vector 244 DatabaseNetwork.user[92] ReadAccesses ETV
vector 245 DatabaseNetwork.user[43] WriteAccesses ETV
vector 246 DatabaseNetwork.user[92] WaitTime ETV
vector 247 DatabaseNetwork.user[43] WaitTime ETV
vector 248 DatabaseNetwork.user[30] ReadAccesses ETV
vector 249 DatabaseNetwork.user[30] WaitTime ETV
vector 250 DatabaseNetwork.user[1] ReadAccesses ETV
vector 251 DatabaseNetwork.user[67] WriteAccesses ETV
vector 252 DatabaseNetwork.user[39] WriteAccesses ETV
vector 253 DatabaseNetwork.user[85] WriteAccesses ETV
vector 254 DatabaseNetwork.user[85] WaitTime ETV
vector 255 DatabaseNetwork.user[46] ReadAccesses ETV
vector 256 DatabaseNetwork.user[81] WriteAccesses ETV
vector 257 DatabaseNetwork.user[24] WriteAccesses ETV
vector 258 DatabaseNetwork.user[24] WaitTime ETV
vector 259 DatabaseNetwork.user[72] WriteAccesses ETV
vector 260 DatabaseNetwork.user[89] WriteAccesses ETV
vector 261 DatabaseNetwork.user[72] WaitTime ETV
vector 262 DatabaseNetwork.user[89] WaitTime ETV
vector 263 DatabaseNetwork.user[91] WriteAccesses ETV
vector 264 DatabaseNetwork.user[91] WaitTime ETV
vector 265 DatabaseNetwork.user[85] ReadAccesses ETV
vector 266 DatabaseNetwork.user[62] ReadAccesses ETV
vector 267 DatabaseNetwork.user[9] ReadAccesses ETV
vector 268 DatabaseNetwork.user[62] WaitTime ETV
vector 269 DatabaseNetwork.user[28] WriteAccesses ETV
vector 270 DatabaseNetwork.user[25] WriteAccesses ETV
vector 271 DatabaseNetwork.user[28] WaitTime ETV
vector 272 DatabaseNetwork.user[89] ReadAccesses ETV
vector 273 DatabaseNetwork.user[42] WriteAccesses ETV
vector 274 DatabaseNetwork.user[42] WaitTime ETV
vector 275 DatabaseNetwork.user[19] ReadAccesses ETV
vector 276 DatabaseNetwork.user[19] WaitTime ETV
vector 277 DatabaseNetwork.user[92] WriteAccesses ETV
vector 278 DatabaseNetwork.user[2] ReadAccesses ETV
vector 279 DatabaseNetwork.user[2] WaitTime ETV
vector 280 DatabaseNetwork.user[75] WriteAccesses ETV
vector 281 DatabaseNetwork.user[75] WaitTime ETV
vector 282 DatabaseNetwork.user[57] WriteAccesses ETV
vector 283 DatabaseNetwork.user[57] WaitTime ETV
vector 284 DatabaseNetwork.user[30] WriteAccesses ETV
vector 285 DatabaseNetwork.user[69] WriteAccesses ETV
vector 286 DatabaseNetwork.user[70] WriteAccesses ETV
vector 287 DatabaseNetwork.user[52] ReadAccesses ETV
vector 288 DatabaseNetwork.user[83] WriteAccesses ETV
vector 289 DatabaseNetwork.user[83] WaitTime ETV
vector 290 DatabaseNetwork.user[75] ReadAccesses ETV
vector 291 DatabaseNetwork.user[23] ReadAccesses ETV
vector 292 DatabaseNetwork.user[49] WriteAccesses ETV
vector 293 DatabaseNetwork.user[49] WaitTime ETV
vector 294 DatabaseNetwork.user[34] WriteAccesses ETV
vector 295 DatabaseNetwork.user[33] ReadAccesses ETV
vector 296 DatabaseNetwork.user[33] WaitTime ETV
vector 297 DatabaseNetwork.user[50] WriteAccesses ETV
vector 298 DatabaseNetwork.user[50] WaitTime ETV
vector 299 DatabaseNetwork.user[24] ReadAccesses ETV
vector 300 DatabaseNetwork.user[73] WriteAccesses ETV
vector 301 DatabaseNetwork.user[73] WaitTime ETV
vector 302 DatabaseNetwork.user[73] ReadAccesses ETV
vector 303 DatabaseNetwork.user[65] WriteAccesses ETV
vector 304 DatabaseNetwork.user[65] WaitTime ETV
vector 305 DatabaseNetwork.user[95] ReadAccesses ETV
vector 306 DatabaseNetwork.user[95] WaitTime ETV
vector 307 DatabaseNetwork.user[51] ReadAccesses ETV
vector 308 DatabaseNetwork.user[51] WaitTime ETV
vector 309 DatabaseNetwork.user[17] WriteAccesses ETV
vector 310 DatabaseNetwork.user[99] WriteAccesses ETV
vector 311 DatabaseNetwork.user[47] ReadAccesses ETV
vector 312 DatabaseNetwork.user[74] ReadAccesses ETV
vector 313 DatabaseNetwork.user[98] ReadAccesses ETV
vector 314 DatabaseNetwork.user[7] WriteAccesses ETV
vector 315 DatabaseNetwork.user[14] WriteAccesses ETV
vector 316 DatabaseNetwork.user[33] WriteAccesses ETV
vector 317 DatabaseNetwork.user[3] ReadAccesses ETV
vector 318 DatabaseNetwork.user[71] ReadAccesses ETV
vector 319 DatabaseNetwork.user[3] WaitTime ETV
vector 320 DatabaseNetwork.user[66] WriteAccesses ETV
vector 321 DatabaseNetwork.user[66] WaitTime ETV
vector 322 DatabaseNetwork.user[90] WriteAccesses ETV
vector 323 DatabaseNetwork.user[90] WaitTime ETV
vector 324 DatabaseNetwork.user[48] ReadAccesses ETV
vector 325 DatabaseNetwork.user[96] ReadAccesses ETV
vector 326 DatabaseNetwork.user[20] WriteAccesses ETV
vector 327 DatabaseNetwork.user[93] ReadAccesses ETV
vector 328 DatabaseNetwork.user[50] ReadAccesses ETV
vector 329 DatabaseNetwork.user[93] WaitTime ETV
vector 330 DatabaseNetwork.user[90] ReadAccesses ETV
vector 331 DatabaseNetwork.user[45] WriteAccesses ETV
vector 332 DatabaseNetwork.user[54] ReadAccesses ETV
vector 333 DatabaseNetwork.user[63] WriteAccesses ETV
vector 334 DatabaseNetwork.user[8] ReadAccesses ETV
vector 335 DatabaseNetwork.user[55] WriteAccesses ETV
vector 336 DatabaseNetwork.user[8] WaitTime ETV
vector 337 DatabaseNetwork.user[55] WaitTime ETV
vector 338 DatabaseNetwork.user[10] WriteAccesses ETV
vector 339 DatabaseNetwork.user[28] ReadAccesses ETV
vector 340 DatabaseNetwork.user[10] WaitTime ETV
vector 341 DatabaseNetwork.user[64] WriteAccesses ETV
vector 342 DatabaseNetwork.user[64] WaitTime ETV
vector 343 DatabaseNetwork.user[57] ReadAccesses ETV
vector 344 DatabaseNetwork.user[4] WriteAccesses ETV
vector 345 DatabaseNetwork.user[88] WriteAccesses ETV
vector 346 DatabaseNetwork.user[8] WriteAccesses ETV
vector 347 DatabaseNetwork.user[31] WriteAccesses ETV
vector 348 DatabaseNetwork.user[31] WaitTime ETV
vector 349 DatabaseNetwork.user[27] ReadAccesses ETV
vector 350 DatabaseNetwork.user[18] WriteAccesses ETV
vector 351 DatabaseNetwork.user[86] ReadAccesses ETV
vector 352 DatabaseNetwork.user[83] ReadAccesses ETV
vector 353 DatabaseNetwork.user[68] ReadAccesses ETV
vector 354 DatabaseNetwork.user[36] ReadAccesses ETV
vector 355 DatabaseNetwork.user[66] ReadAccesses ETV
vector 356 DatabaseNetwork.user[78] ReadAccesses ETV
vector 357 DatabaseNetwork.user[15] ReadAccesses ETV
vector 358 DatabaseNetwork.user[58] ReadAccesses ETV
vector 359 DatabaseNetwork.user[58] WaitTime ETV
vector 360 DatabaseNetwork.user[94] WriteAccesses ETV
vector 361 DatabaseNetwork.user[84] WriteAccesses ETV
vector 362 DatabaseNetwork.user[93] WriteAccesses ETV
vector 363 DatabaseNetwork.user[43] ReadAccesses ETV
vector 364 DatabaseNetwork.user[72] ReadAccesses ETV
vector 365 DatabaseNetwork.user[3] WriteAccesses ETV
vector 366 DatabaseNetwork.user[58] WriteAccesses ETV
vector 367 DatabaseNetwork.user[95] WriteAccesses ETV
vector 368 DatabaseNetwork.user[31] ReadAccesses ETV
vector 369 DatabaseNetwork.user[61] WriteAccesses ETV
vector 370 DatabaseNetwork.user[10] ReadAccesses ETV
vector 371 DatabaseNetwork.user[62] WriteAccesses ETV
vector 372 DatabaseNetwork.user[0] WriteAccesses ETV
vector 373 DatabaseNetwork.user[35] WriteAccesses ETV
vector 374 DatabaseNetwork.user[35] WaitTime ETV
vector 375 DatabaseNetwork.user[29] ReadAccesses ETV
vector 376 DatabaseNetwork.user[97] ReadAccesses ETV
vector 377 DatabaseNetwork.user[60] ReadAccesses ETV
vector 378 DatabaseNetwork.user[60] WaitTime ETV
vector 379 DatabaseNetwork.user[19] WriteAccesses ETV
vector 380 DatabaseNetwork.user[64] ReadAccesses ETV
vector 381 DatabaseNetwork.user[91] ReadAccesses ETV
vector 382 DatabaseNetwork.user[16] ReadAccesses ETV
vector 383 DatabaseNetwork.user[42] ReadAccesses ETV
vector 384 DatabaseNetwork.user[56] WriteAccesses ETV
vector 385 DatabaseNetwork.user[44] ReadAccesses ETV
vector 386 DatabaseNetwork.user[11] ReadAccesses ETV
vector 387 DatabaseNetwork.user[40] ReadAccesses ETV
vector 388 DatabaseNetwork.user[37] ReadAccesses ETV
vector 389 DatabaseNetwork.user[80] ReadAccesses ETV
vector 390 DatabaseNetwork.user[49] ReadAccesses ETV
vector 391 DatabaseNetwork.user[82] WriteAccesses ETV
vector 392 DatabaseNetwork.user[26] ReadAccesses ETV
vector 393 DatabaseNetwork.user[65] ReadAccesses ETV
vector 394 DatabaseNetwork.user[55] ReadAccesses ETV
vector 395 DatabaseNetwork.user[51] WriteAccesses ETV
vector 396 DatabaseNetwork.user[2] WriteAccesses ETV
vector 397 DatabaseNetwork.user[35] ReadAccesses ETV
vector 398 DatabaseNetwork.user[60] WriteAccesses ETV
vector 399 DatabaseNetwork.user[22] WriteAccesses ETV
0	22052 20969 0 199381 0 9997.866207223225 498 0.0059674967368126 117.56804382783 10020.393613852 416805.89183098
1	43021 21203 0 198437 0 9955.240640017852 504 0.0028574132938234 95.198985718826 10002.671866843 377589.66114554
2	64224 20083 0 198289 0 9947.337635316061 477 0.0030677929717917 185.45838570291 10030.877010302 448866.42861268
3	84307 20742 0 199203 0 9990.53477595935 492 0.00025057856504704 118.82829954631 10008.003784557 388755.84958113
4	105049 22092 0 198979 0 9980.132548044588 525 0.060146354611809 137.36011817317 10016.501691765 384396.71789749
5	127141 21673 0 198937 0 9978.447326518832 515 0.13298507637601 162.29201651484 10013.952008582 394466.76965479
6	148814 21559 0 198723 0 9968.728776459734 512 0.041390042684744 145.19175631348 10003.296412948 408092.9939596
7	170373 20559 0 199041 0 9983.335706865138 488 0.0084339027593333 97.971389959593 10014.635154251 391890.02491677
8	190932 20192 0 198959 0 9979.06773677051 480 0.021252856127507 119.82041971546 10008.140844981 398780.28363692
9	211124 20046 0 199335 0 9996.411883040186 476 0.021943590612587 137.64102196473 10004.112556294 418907.60156222
10	231170 23116 0 198777 0 9970.835970635718 536 0.057460016824229 106.43727162873 10011.800017755 380200.08254426
11	254286 22798 0 199025 0 9982.773500637466 528 0.013694057936636 135.32706004005 10085.931469603 400188.97968125
12	277084 20406 0 198665 0 9965.16850597794 474 0.033713484380008 111.22612022657 10006.421751735 410012.52856222
13	297490 20482 0 199425 0 9999.614390725004 476 0.088403348470027 118.92408422759 10003.036767868 403515.36647956
14	317972 22127 0 198803 0 9972.056751508803 514 0.22372935687425 128.48635673662 10015.394567071 381153.03681403
15	340099 21972 0 199369 0 9996.997562721817 510 0.040612005672434 106.54290745621 10027.389100598 387922.70869745
16	362071 21312 0 199405 0 9998.80664196527 494 0.044037261022417 110.56444405408 10000.536318008 384126.25341706
17	383383 21711 0 199269 0 9993.087288215027 504 0.072848230845257 97.890240650388 10002.694634222 371241.10259872
18	405094 22351 0 198985 0 9980.253523936037 518 0.044777698161259 163.61090770073 10143.864431637 393853.46163375
19	427445 21470 0 199345 0 9996.566876294533 498 0.063398695444313 136.28102887738 10036.966659926 407031.76240367
20	448915 21719 0 199373 0 9997.334218730391 503 0.014973289151564 122.6721385108 10014.739042894 406051.81784515
21	470634 21646 0 199329 0 9996.20929991307 502 0.026902406500338 120.1466028197 10038.740622216 378939.66127624
22	492280 20336 0 198871 0 9974.298317671903 471 0.06670305248846 191.47605458929 10003.869645584 458941.06890637
23	512616 21651 0 199089 0 9986.161593368578 502 0.046624469837513 136.89024174606 10007.433495245 400934.23907821
24	534267 21941 0 199093 0 9986.225086026545 509 0.025111688649682 175.70827130538 10013.103901944 378531.42480675
25	556208 20386 0 199029 0 9982.888540684046 474 0.016808614106427 194.62974105996 10068.406774142 427614.83727382
26	576594 24369 0 199357 0 9996.74855803856 564 0.016701133296684 110.2239296143 10088.756712051 368510.34483235
27	600963 21655 0 198273 0 9946.244586175259 502 0.015340764746038 119.50797974796 10018.012539627 382240.20626916
28	622618 21825 0 199313 0 9994.966220518883 507 0.063161828967718 120.91036790593 10015.688500102 396266.83114741
29	644443 20837 0 199009 0 9981.638178851867 483 0.070558533772392 121.0084469926 10019.960275693 393531.12613331
30	665280 21121 0 199001 0 9981.456279608427 490 0.077006629372561 136.11219923384 10012.011037278 419953.68998131
31	686401 21312 0 198795 0 9971.917140691207 494 0.0060110677396255 130.26224856001 10015.755427441 403148.30243542
32	707713 19960 0 199253 0 9991.95726458842 463 0.061729427213697 222.46098189218 10002.218923377 445349.96597374
33	727673 21679 0 199277 0 9993.328967492321 502 0.039654213402805 130.01168077026 10001.714612533 408334.10422925
34	749352 22539 0 198901 0 9977.192178727025 522 0.16009882716414 107.96328712493 10000.183418644 362184.44256537
35	771891 20457 0 199407 0 9998.887454802968 474 0.044658338709254 127.74906502758 10010.370738595 431140.66304588
36	792348 22564 0 199049 0 9983.707925759857 523 0.0031540142561732 116.89816264797 10001.635088349 360057.43185597
37	814912 21117 0 198967 0 9979.594346014091 490 0.035601097489919 110.85523930485 10014.441366772 393011.49426002
38	836029 22523 0 199201 0 9990.524065057602 522 0.021422971299443 118.99037723501 10010.799844318 371404.02405451
39	858552 21162 0 199323 0 9995.848222179914 491 0.0061460201372557 138.8344937542 10006.248252487 408500.78133887
40	879714 21314 0 199359 0 9996.782035929763 494 0.010611659143972 241.15209767689 10007.399769948 435150.22998625
41	901028 23682 0 199155 0 9988.815683903622 549 0.057159489892432 103.63211854925 10049.952071411 379566.8061459
42	924710 21661 0 199383 0 9997.878929431816 502 0.022746323103315 118.2756324145 10002.944987416 399494.18930523
43	946371 22709 0 199241 0 9991.544550764843 526 0.044024851799278 124.0672332975 10095.652185748 385483.62914843
44	969080 19503 0 199419 0 9999.431045369261 451 0.033357611881899 132.07285610907 10013.019980125 403719.42768025
45	988583 20170 0 199149 0 9988.5547125834 468 0.019894816216929 204.89377739807 10005.588365927 465264.97782297
46	1008753 21363 0 199261 0 9992.178775747557 495 0.023583144476877 114.29349776861 10025.947481036 384082.28472241
47	1030116 21295 0 199417 0 9999.406645262153 494 0.011003459353306 116.43770142034 10115.844346683 393731.51125465
48	1051411 21930 0 199413 0 9999.106414782561 509 0.0013090725988186 124.73516024484 10061.025452318 408625.88157659
49	1073341 21320 0 199205 0 9990.543875195902 494 0.034706322596876 161.84745901068 10013.460854197 419800.05087043
50	1094661 20934 0 197581 0 9911.384083495921 486 0.010431260215483 146.82123172088 10006.509256824 412923.32938188
51	1115595 22138 0 199209 0 9990.578746734183 513 0.030199773332056 128.10422122619 10030.236264324 377804.27435872
52	1137733 19907 0 198927 0 9978.163960383854 462 0.018356677739743 127.93612290512 10060.549601493 434994.1511849
53	1157640 21802 0 199065 0 9984.058488481779 505 0.0086738348875903 140.94774292811 10023.933543663 393442.20717495
54	1179442 21999 0 198589 0 9960.764901216373 511 0.0081181934906992 116.95465708922 10046.021590661 383667.57262992
55	1201441 20450 0 199185 0 9989.694779185223 475 0.058554202209419 134.82961523269 10004.500514996 411043.1658716
56	1221891 21167 0 198899 0 9977.131955995354 491 0.042903101968052 146.54281736201 10027.577862242 408200.32576498
57	1243058 20828 0 199103 0 9986.339869869472 484 0.18366788199348 129.5979833207 10003.141844416 399889.20844819
58	1263886 20024 0 199129 0 9987.515731461205 464 0.024609081419643 119.80975247525 10001.923992325 432617.60385145
59	1283910 21471 0 198165 0 9939.760798900316 498 0.03471060479247 135.3894617151 10024.220974829 416492.20737625
60	1305381 20410 0 198949 0 9978.834218252182 474 0.055127837450939 141.99187850822 10012.497551662 432221.31726113
61	1325791 21138 0 199401 0 9998.421473975489 490 0.037647977825614 174.80084997602 10029.095261437 420392.57605029
62	1346929 22062 0 198843 0 9973.660099833423 511 0.037447913047065 126.40680647821 10079.672155097 414973.27605145
63	1368991 20811 0 199021 0 9982.657145423393 483 0.053272576549333 131.55420713593 10055.136761523 410774.29445297
64	1389802 20947 0 199235 0 9991.291188139119 485 0.05697528494205 119.64478579664 10001.958529839 385045.25522906
65	1410749 22529 0 199197 0 9990.455044567634 522 0.032944025049189 123.40610045023 10012.062213298 382290.69830836
66	1433278 22415 0 198755 0 9969.49941933839 519 0.019229121940046 116.04734358699 10003.355306288 387830.04601126
67	1455693 21280 0 199333 0 9996.348462190367 494 0.0075351949433343 126.17386907514 10026.957498003 425909.59440808