version 3
run Uniform-4-20260105-16:25:28-14448
attr configname Uniform
attr datetime 20260105-16:25:28
attr datetimef 20260105-162528
attr experiment Uniform
attr inifile omnetpp.ini
attr iterationvars "$N=50, $p=0.5"
attr iterationvarsd N=50/p=0.5
attr iterationvarsf N=50,p=0.5-
attr measurement "$N=50, $p=0.5"
attr network progetto.DatabaseNetwork
attr processid 14448
attr repetition 4
attr replication #4
attr resultdir results
attr runnumber 4
attr seedset 4
itervar N 50
itervar p 0.5
config description "Uniform distribution - varia N e p"
config *.user[*].tableDistribution "\"uniform\""
config *.numUsers 50
config *.user[*].readProbability 0.5
config network progetto.DatabaseNetwork
config sim-time-limit 10000s
config cpu-time-limit 3600s
config repeat 5
config seed-set 4
config output-vector-file "results/Uniform-$N=50, $p=0.5-4.vec"
config output-scalar-file "results/Uniform-$N=50, $p=0.5-4.sca"
config result-dir results
config **.vector-recording true
config **.scalar-recording true
config *.numTables 20
config *.user[*].lambda 0.05
config *.user[*].serviceTime 0.1s

vector 0 DatabaseNetwork.user[0] AccessInterval ETV
vector 1 DatabaseNetwork.user[1] AccessInterval ETV
vector 2 DatabaseNetwork.user[2] AccessInterval ETV
vector 3 DatabaseNetwork.user[3] AccessInterval ETV
vector 4 DatabaseNetwork.user[4] AccessInterval ETV
vector 5 DatabaseNetwork.user[5] AccessInterval ETV
vector 6 DatabaseNetwork.user[6] AccessInterval ETV
vector 7 DatabaseNetwork.user[7] AccessInterval ETV
vector 8 DatabaseNetwork.user[8] AccessInterval ETV
vector 9 DatabaseNetwork.user[9] AccessInterval ETV
vector 10 DatabaseNetwork.user[10] AccessInterval ETV
vector 11 DatabaseNetwork.user[11] AccessInterval ETV
vector 12 DatabaseNetwork.user[12] AccessInterval ETV
vector 13 DatabaseNetwork.user[13] AccessInterval ETV
vector 14 DatabaseNetwork.user[14] AccessInterval ETV
vector 15 DatabaseNetwork.user[15] AccessInterval ETV
vector 16 DatabaseNetwork.user[16] AccessInterval ETV
vector 17 DatabaseNetwork.user[17] AccessInterval ETV
vector 18 DatabaseNetwork.user[18] AccessInterval ETV
vector 19 DatabaseNetwork.user[19] AccessInterval ETV
vector 20 DatabaseNetwork.user[20] AccessInterval ETV
vector 21 DatabaseNetwork.user[21] AccessInterval ETV
vector 22 DatabaseNetwork.user[22] AccessInterval ETV
vector 23 DatabaseNetwork.user[23] AccessInterval ETV
vector 24 DatabaseNetwork.user[24] AccessInterval ETV
vector 25 DatabaseNetwork.user[25] AccessInterval ETV
vector 26 DatabaseNetwork.user[26] AccessInterval ETV
vector 27 DatabaseNetwork.user[27] AccessInterval ETV
vector 28 DatabaseNetwork.user[28] AccessInterval ETV
vector 29 DatabaseNetwork.user[29] AccessInterval ETV
vector 30 DatabaseNetwork.user[30] AccessInterval ETV
vector 31 DatabaseNetwork.user[31] AccessInterval ETV
vector 32 DatabaseNetwork.user[32] AccessInterval ETV
vector 33 DatabaseNetwork.user[33] AccessInterval ETV
vector 34 DatabaseNetwork.user[34] AccessInterval ETV
vector 35 DatabaseNetwork.user[35] AccessInterval ETV
vector 36 DatabaseNetwork.user[36] AccessInterval ETV
vector 37 DatabaseNetwork.user[37] AccessInterval ETV
vector 38 DatabaseNetwork.user[38] AccessInterval ETV
vector 39 DatabaseNetwork.user[39] AccessInterval ETV
vector 40 DatabaseNetwork.user[40] AccessInterval ETV
vector 41 DatabaseNetwork.user[41] AccessInterval ETV
vector 42 DatabaseNetwork.user[42] AccessInterval ETV
vector 43 DatabaseNetwork.user[43] AccessInterval ETV
vector 44 DatabaseNetwork.user[44] AccessInterval ETV
vector 45 DatabaseNetwork.user[45] AccessInterval ETV
vector 46 DatabaseNetwork.user[46] AccessInterval ETV
vector 47 DatabaseNetwork.user[47] AccessInterval ETV
vector 48 DatabaseNetwork.user[48] AccessInterval ETV
vector 49 DatabaseNetwork.user[49] AccessInterval ETV
vector 50 DatabaseNetwork.user[21] ReadAccesses ETV
vector 51 DatabaseNetwork.user[14] ReadAccesses ETV
vector 52 DatabaseNetwork.user[32] WriteAccesses ETV
vector 53 DatabaseNetwork.user[21] WaitTime ETV
vector 54 DatabaseNetwork.user[14] WaitTime ETV
vector 55 DatabaseNetwork.user[32] WaitTime ETV
vector 56 DatabaseNetwork.user[41] WriteAccesses ETV
vector 57 DatabaseNetwork.user[41] WaitTime ETV
vector 58 DatabaseNetwork.user[43] WriteAccesses ETV
vector 59 DatabaseNetwork.user[36] ReadAccesses ETV
vector 60 DatabaseNetwork.user[43] WaitTime ETV
vector 61 DatabaseNetwork.user[36] WaitTime ETV
vector 62 DatabaseNetwork.user[11] ReadAccesses ETV
vector 63 DatabaseNetwork.user[11] WaitTime ETV
vector 64 DatabaseNetwork.user[28] WriteAccesses ETV
vector 65 DatabaseNetwork.user[28] WaitTime ETV
vector 66 DatabaseNetwork.user[3] ReadAccesses ETV
vector 67 DatabaseNetwork.user[48] ReadAccesses ETV
vector 68 DatabaseNetwork.user[3] WaitTime ETV
vector 69 DatabaseNetwork.user[48] WaitTime ETV
vector 70 DatabaseNetwork.user[22] ReadAccesses ETV
vector 71 DatabaseNetwork.user[22] WaitTime ETV
vector 72 DatabaseNetwork.user[10] ReadAccesses ETV
vector 73 DatabaseNetwork.user[10] WaitTime ETV
vector 74 DatabaseNetwork.user[13] ReadAccesses ETV
vector 75 DatabaseNetwork.user[13] WaitTime ETV
vector 76 DatabaseNetwork.user[16] ReadAccesses ETV
vector 77 DatabaseNetwork.user[16] WaitTime ETV
vector 78 DatabaseNetwork.user[35] WriteAccesses ETV
vector 79 DatabaseNetwork.user[35] WaitTime ETV
vector 80 DatabaseNetwork.user[25] WriteAccesses ETV
vector 81 DatabaseNetwork.user[25] WaitTime ETV
vector 82 DatabaseNetwork.user[34] ReadAccesses ETV
vector 83 DatabaseNetwork.user[34] WaitTime ETV
vector 84 DatabaseNetwork.user[29] WriteAccesses ETV
vector 85 DatabaseNetwork.user[29] WaitTime ETV
vector 86 DatabaseNetwork.user[13] WriteAccesses ETV
vector 87 DatabaseNetwork.user[18] ReadAccesses ETV
vector 88 DatabaseNetwork.user[40] ReadAccesses ETV
vector 89 DatabaseNetwork.user[18] WaitTime ETV
vector 90 DatabaseNetwork.user[40] WaitTime ETV
vector 91 DatabaseNetwork.user[49] WriteAccesses ETV
vector 92 DatabaseNetwork.user[49] WaitTime ETV
vector 93 DatabaseNetwork.user[47] ReadAccesses ETV
vector 94 DatabaseNetwork.user[47] WaitTime ETV
vector 95 DatabaseNetwork.user[18] WriteAccesses ETV
vector 96 DatabaseNetwork.user[35] ReadAccesses ETV
vector 97 DatabaseNetwork.user[2] WriteAccesses ETV
vector 98 DatabaseNetwork.user[2] WaitTime ETV
vector 99 DatabaseNetwork.user[23] ReadAccesses ETV
vector 100 DatabaseNetwork.user[23] WaitTime ETV
vector 101 DatabaseNetwork.user[34] WriteAccesses ETV
vector 102 DatabaseNetwork.user[11] WriteAccesses ETV
vector 103 DatabaseNetwork.user[30] WriteAccesses ETV
vector 104 DatabaseNetwork.user[9] WriteAccesses ETV
vector 105 DatabaseNetwork.user[30] WaitTime ETV
vector 106 DatabaseNetwork.user[9] WaitTime ETV
vector 107 DatabaseNetwork.user[27] WriteAccesses ETV
vector 108 DatabaseNetwork.user[27] WaitTime ETV
vector 109 DatabaseNetwork.user[7] ReadAccesses ETV
vector 110 DatabaseNetwork.user[10] WriteAccesses ETV
vector 111 DatabaseNetwork.user[7] WaitTime ETV
vector 112 DatabaseNetwork.user[33] WriteAccesses ETV
vector 113 DatabaseNetwork.user[33] WaitTime ETV
vector 114 DatabaseNetwork.user[32] ReadAccesses ETV
vector 115 DatabaseNetwork.user[19] WriteAccesses ETV
vector 116 DatabaseNetwork.user[19] WaitTime ETV
vector 117 DatabaseNetwork.user[37] ReadAccesses ETV
vector 118 DatabaseNetwork.user[37] WaitTime ETV
vector 119 DatabaseNetwork.user[22] WriteAccesses ETV
vector 120 DatabaseNetwork.user[7] WriteAccesses ETV
vector 121 DatabaseNetwork.user[48] WriteAccesses ETV
vector 122 DatabaseNetwork.user[8] WriteAccesses ETV
vector 123 DatabaseNetwork.user[15] ReadAccesses ETV
vector 124 DatabaseNetwork.user[8] WaitTime ETV
vector 125 DatabaseNetwork.user[15] WaitTime ETV
vector 126 DatabaseNetwork.user[19] ReadAccesses ETV
vector 127 DatabaseNetwork.user[3] WriteAccesses ETV
vector 128 DatabaseNetwork.user[6] WriteAccesses ETV
vector 129 DatabaseNetwork.user[6] WaitTime ETV
vector 130 DatabaseNetwork.user[16] WriteAccesses ETV
vector 131 DatabaseNetwork.user[20] ReadAccesses ETV
vector 132 DatabaseNetwork.user[20] WaitTime ETV
vector 133 DatabaseNetwork.user[47] WriteAccesses ETV
vector 134 DatabaseNetwork.user[44] WriteAccesses ETV
vector 135 DatabaseNetwork.user[44] WaitTime ETV
vector 136 DatabaseNetwork.user[21] WriteAccesses ETV
vector 137 DatabaseNetwork.user[23] WriteAccesses ETV
vector 138 DatabaseNetwork.user[39] ReadAccesses ETV
vector 139 DatabaseNetwork.user[31] ReadAccesses ETV
vector 140 DatabaseNetwork.user[39] WaitTime ETV
vector 141 DatabaseNetwork.user[36] WriteAccesses ETV
vector 142 DatabaseNetwork.user[31] WaitTime ETV
vector 143 DatabaseNetwork.user[33] ReadAccesses ETV
vector 144 DatabaseNetwork.user[5] ReadAccesses ETV
vector 145 DatabaseNetwork.user[5] WaitTime ETV
vector 146 DatabaseNetwork.user[30] ReadAccesses ETV
vector 147 DatabaseNetwork.user[2] ReadAccesses ETV
vector 148 DatabaseNetwork.user[31] WriteAccesses ETV
vector 149 DatabaseNetwork.user[24] ReadAccesses ETV
vector 150 DatabaseNetwork.user[24] WaitTime ETV
vector 151 DatabaseNetwork.user[40] WriteAccesses ETV
vector 152 DatabaseNetwork.user[9] ReadAccesses ETV
vector 153 DatabaseNetwork.user[46] WriteAccesses ETV
vector 154 DatabaseNetwork.user[14] WriteAccesses ETV
vector 155 DatabaseNetwork.user[46] WaitTime ETV
vector 156 DatabaseNetwork.user[41] ReadAccesses ETV
vector 157 DatabaseNetwork.user[1] ReadAccesses ETV
vector 158 DatabaseNetwork.user[1] WaitTime ETV
vector 159 DatabaseNetwork.user[49] ReadAccesses ETV
vector 160 DatabaseNetwork.user[17] WriteAccesses ETV
vector 161 DatabaseNetwork.user[17] WaitTime ETV
vector 162 DatabaseNetwork.user[46] ReadAccesses ETV
vector 163 DatabaseNetwork.user[29] ReadAccesses ETV
vector 164 DatabaseNetwork.user[43] ReadAccesses ETV
vector 165 DatabaseNetwork.user[6] ReadAccesses ETV
vector 166 DatabaseNetwork.user[44] ReadAccesses ETV
vector 167 DatabaseNetwork.user[45] WriteAccesses ETV
vector 168 DatabaseNetwork.user[45] WaitTime ETV
vector 169 DatabaseNetwork.user[42] ReadAccesses ETV
vector 170 DatabaseNetwork.user[42] WaitTime ETV
vector 171 DatabaseNetwork.user[27] ReadAccesses ETV
vector 172 DatabaseNetwork.user[38] WriteAccesses ETV
vector 173 DatabaseNetwork.user[38] WaitTime ETV
vector 174 DatabaseNetwork.user[24] WriteAccesses ETV
vector 175 DatabaseNetwork.user[42] WriteAccesses ETV
vector 176 DatabaseNetwork.user[0] WriteAccesses ETV
vector 177 DatabaseNetwork.user[0] WaitTime ETV
vector 178 DatabaseNetwork.user[45] ReadAccesses ETV
vector 179 DatabaseNetwork.user[4] WriteAccesses ETV
vector 180 DatabaseNetwork.user[4] WaitTime ETV
vector 181 DatabaseNetwork.user[28] ReadAccesses ETV
vector 182 DatabaseNetwork.user[12] ReadAccesses ETV
vector 183 DatabaseNetwork.user[12] WaitTime ETV
vector 184 DatabaseNetwork.user[38] ReadAccesses ETV
vector 185 DatabaseNetwork.user[39] WriteAccesses ETV
vector 186 DatabaseNetwork.user[20] WriteAccesses ETV
vector 187 DatabaseNetwork.user[5] WriteAccesses ETV
vector 188 DatabaseNetwork.user[26] ReadAccesses ETV
vector 189 DatabaseNetwork.user[26] WaitTime ETV
vector 190 DatabaseNetwork.user[8] ReadAccesses ETV
vector 191 DatabaseNetwork.user[15] WriteAccesses ETV
vector 192 DatabaseNetwork.user[37] WriteAccesses ETV
vector 193 DatabaseNetwork.user[4] ReadAccesses ETV
vector 194 DatabaseNetwork.user[12] WriteAccesses ETV
vector 195 DatabaseNetwork.user[17] ReadAccesses ETV
vector 196 DatabaseNetwork.user[1] WriteAccesses ETV
vector 197 DatabaseNetwork.user[0] ReadAccesses ETV
vector 198 DatabaseNetwork.user[25] ReadAccesses ETV
vector 199 DatabaseNetwork.user[26] WriteAccesses ETV
0	0	0	68.243046383688
0	637	68.243046383688	0.54948781211409
0	641	68.792534195802	48.327687983017
0	1135	117.120222178819	23.216941245026
0	1309	140.337163423845	1.4672908263796
0	1321	141.804454250225	6.523595095969
0	1401	148.328049346194	24.097940634599
0	1657	172.425989980793	35.39006951958
0	1981	207.816059500373	23.149965963807
0	2221	230.96602546418	13.305951213785
0	2369	244.271976677965	10.595335584709
0	2485	254.867312262674	22.130453536973
0	2653	276.997765799647	10.76784571912
0	2759	287.765611518767	0.62890377956117
0	2765	288.394515298328	15.010098253832
0	2911	303.40461355216	5.3014256324253
0	2977	308.706039184585	19.520802134121
0	3169	328.226841318706	29.937557527507
0	3517	358.164398846213	19.211815040391
0	3765	377.376213886604	5.9492906073122
0	3833	383.325504493916	13.023595477015
0	3945	396.349099970931	0.67692437094716
0	3955	397.026024341878	10.059682928546
0	4041	407.085707270424	11.922872297211
0	4153	419.008579567635	1.3378610894616
0	4167	420.346440657097	23.771989446025
0	4369	444.118430103122	86.914475569201
0	5137	531.032905672323	22.000654207174
0	5345	553.033559879497	14.738748932637
0	5477	567.772308812134	11.533039534948
0	5585	579.305348347082	30.412803885748
0	5853	609.71815223283	15.446246084464
0	6041	625.164398317294	37.193360278264
0	6429	662.357758595558	0.36538699975691
0	6437	662.723145595315	22.094556806453
0	6649	684.817702401768	1.5068088703265
0	6673	686.324511272094	0.57442586779248
0	6681	686.898937139886	15.845785634841
0	6829	702.744722774727	19.514303511678
0	7011	722.259026286405	53.832414277621
0	7501	776.091440564026	1.5726978557439
0	7523	777.66413841977	49.94286972739
0	7993	827.60700814716	20.424624886096
0	8227	848.031633033256	53.424165592529
0	8721	901.455798625785	3.3761676552722
0	8753	904.831966281057	15.043480185803
0	8885	919.87544646686	2.244355781111
0	8937	922.119802247971	13.263571992593
0	9081	935.383374240564	13.725102381505
0	9193	949.108476622069	26.651202993599
0	9443	975.759679615668	22.939006685853
0	9657	998.698686301521	12.407925576671
0	9773	1011.106611878192	14.295998624542
0	9905	1025.402610502734	13.812359769171
0	10035	1039.214970271905	14.836896784468
0	10155	1054.051867056373	4.0258157074934
0	10205	1058.077682763866	13.517671423407
0	10345	1071.595354187273	1.6088807210086
0	10377	1073.204234908282	0.43302747092753
0	10385	1073.63726237921	74.695738081902
0	11165	1148.333000461112	2.9439895880733
0	11189	1151.276990049185	20.133031591195
0	11369	1171.41002164038	22.820292716065
0	11577	1194.230314356445	18.518013173569
0	11765	1212.748327530014	32.692273711376
0	12117	1245.44060124139	4.0712045520567
0	12157	1249.511805793447	4.466004472541
0	12197	1253.977810265988	3.8408734685637
0	12249	1257.818683734552	9.6768790295935
0	12335	1267.495562764145	34.782265935101
0	12651	1302.277828699246	16.37033713734
0	12797	1318.648165836586	0.52874210147687
0	12805	1319.176907938063	101.26821606636
0	13773	1420.445124004425	4.3076906982324
0	13835	1424.752814702657	17.647108514763
0	14013	1442.39992321742	69.090908465942
0	14669	1511.490831683362	14.489180551165
0	14841	1525.980012234527	2.4903101816996
0	14869	1528.470322416227	15.688327250186
0	15037	1544.158649666413	77.600227927385
0	15753	1621.758877593798	10.364300604726
0	15865	1632.123178198524	1.3169588281172
0	15881	1633.440137026641	18.316662254799
0	16043	1651.75679928144	49.556765519433
0	16517	1701.313564800873	5.5471365320186
0	16573	1706.860701332892	12.147497982859
0	16709	1719.008199315751	10.889286423682
0	16841	1729.897485739433	18.800432955046
0	17037	1748.697918694479	15.280699673568
0	17189	1763.978618368047	32.891353025405
0	17525	1796.869971393452	8.0036166735845
0	17605	1804.873588067036	24.291968838785
0	17821	1829.165556905821	8.2991826159802
0	17897	1837.464739521801	50.040401168613
0	18427	1887.505140690414	1.6477187487625
0	18443	1889.152859439176	1.3638145764442
0	18459	1890.51667401562	3.1646244716591
0	18491	1893.681298487279	26.779663660422
0	18753	1920.460962147701	15.712154019617
0	18937	1936.173116167318	21.927858006536
0	19165	1958.100974173854	14.925838109869
0	19301	1973.026812283723	0.58701820548178
0	19309	1973.613830489205	74.499384113699
0	19993	2048.113214602904	5.5469892974159
0	20069	2053.66020390032	22.264179293452
0	20291	2075.924383193772	14.75845424941
0	20419	2090.682837443182	25.679547617239
0	20685	2116.362385060421	0.078602041970878
0	20687	2116.440987102392	82.902118431303
0	21425	2199.343105533695	2.7269808085709
0	21453	2202.070086342266	43.348197828829
0	21913	2245.418284171095	8.8392744997647
0	22013	2254.25755867086	7.9877089058646
0	22113	2262.245267576725	13.173905644757
0	22253	2275.419173221482	36.839555179268
0	22641	2312.25872840075	20.007986197535
0	22845	2332.266714598285	40.156642331559
0	23235	2372.423356929844	0.84619072196257
0	23255	2373.269547651807	8.7299860870111
0	23355	2381.999533738818	23.79828808274
0	23549	2405.797821821558	30.367522197771
0	23861	2436.165344019329	4.2951744338546
0	23917	2440.460518453184	3.1822014385404
0	23935	2443.642719891724	2.3127615683144
0	23953	2445.955481460038	0.81543616406094
0	23969	2446.770917624099	25.810576288489
0	24217	2472.581493912588	3.945908174673
0	24257	2476.527402087261	5.8248219111241
0	24313	2482.352223998385	64.566821362584
0	24873	2546.919045360969	14.968015139693
0	25077	2561.887060500662	9.6300285253018
0	25175	2571.517089025964	3.3293814864931
0	25221	2574.846470512457	14.403411581085
0	25385	2589.249882093542	8.5069901263544
0	25491	2597.756872219896	13.01479650526
0	25625	2610.771668725156	35.615368542137
0	25977	2646.387037267293	1.4555860225307
0	25989	2647.842623289824	0.9653076682406
0	25993	2648.807930958065	1.9405706280338
0	26025	2650.748501586099	3.5031112216731
0	26063	2654.251612807772	3.8499740965652
0	26101	2658.101586904337	4.0686578045335
0	26145	2662.170244708871	10.800818734041
0	26253	2672.971063442912	44.528908506554
0	26703	2717.499971949466	6.5009466702133
0	26773	2724.000918619679	24.907477888531
0	26993	2748.90839650821	37.928639466123
0	27425	2786.837035974333	12.901098284522
0	27513	2799.738134258855	15.105296220858
0	27671	2814.843430479713	5.6124280634533
0	27737	2820.455858543166	3.1731075773238
0	27761	2823.62896612049	3.6579430211777
0	27805	2827.286909141668	12.572854574859
0	27925	2839.859763716527	5.132971808193
0	27963	2844.99273552472	17.451495913438
0	28157	2862.444231438158	4.9610823265863
0	28217	2867.405313764744	3.2013338957791
0	28269	2870.606647660523	8.8560859347884
0	28333	2879.462733595311	31.633688402221
0	28653	2911.096421997532	4.3672746330731
0	28693	2915.463696630605	22.214920873063
0	28909	2937.678617503668	12.481014704475
0	29025	2950.159632208143	16.487036545361
0	29177	2966.646668753504	2.3813978407967
0	29207	2969.028066594301	14.198933805048
0	29347	2983.227000399349	16.4314031796
0	29465	2999.658403578949	6.8904432495471
0	29509	3006.548846828496	51.343716408137
0	29999	3057.892563236633	14.10528680128
0	30149	3071.997850037913	0.33433681888031
0	30155	3072.332186856793	72.7432115535
0	30857	3145.075398410293	26.127499328772
0	31145	3171.202897739065	12.381697900262
0	31305	3183.584595639327	26.257119841743
0	31547	3209.84171548107	2.4159996326436
0	31581	3212.257715113714	4.9834073106909
0	31619	3217.241122424405	18.225024285904
0	31805	3235.466146710309	0.87161249952468
0	31817	3236.337759209834	8.0826931676513
0	31891	3244.420452377485	18.609506092177
0	32075	3263.029958469662	25.948957523452
0	32345	3288.978915993114	1.0350336203182
0	32357	3290.013949613432	12.384688953535
0	32509	3302.398638566967	32.591978712777
0	32841	3334.990617279744	22.614041784588
0	33089	3357.604659064332	28.13528391134
0	33305	3385.739942975672	34.87484947246
0	33649	3420.614792448132	28.944413957153
0	33889	3449.559206405285	8.6010829224738
0	33945	3458.160289327759	29.90001454599
0	34161	3488.060303873749	12.403037829107
0	34321	3500.463341702856	1.5419139705762
0	34353	3502.005255673432	22.033650843769
0	34581	3524.038906517201	27.400698356079
0	34837	3551.43960487328	8.7365298757468
0	34923	3560.176134749027	7.2847140985696
0	35001	3567.460848847597	5.0129687941184
0	35091	3572.473817641715	7.3951801191654
0	35169	3579.86899776088	9.2277680216167
0	35269	3589.096765782497	36.264510738438
0	35589	3625.361276520935	1.9144645317558
0	35609	3627.275741052691	28.589815317898
0	35943	3655.865556370589	8.2166144120677
0	36039	3664.082170782657	26.17160079125
0	36287	3690.253771573907	12.139538231342
0	36413	3702.393309805249	76.301314733963
0	37177	3778.694624539212	20.676241340852
0	37369	3799.370865880064	1.2955848670039
0	37389	3800.666450747068	66.359102800991
0	38069	3867.025553548059	8.1022909141023
0	38177	3875.127844462161	2.0204927576417
0	38201	3877.148337219803	18.214257832545
0	38387	3895.362595052348	19.407739327438
0	38597	3914.770334379786	4.803339503704
0	38645	3919.57367388349	7.8301986014065
0	38741	3927.403872484896	0.87507540094437
0	38761	3928.27894788584	37.231032126449
0	39101	3965.509980012289	3.6611567496831
0	39125	3969.171136761972	41.589081845232
0	39565	4010.760218607204	12.997428390173
0	39745	4023.757646997377	9.4723030214435
0	39829	4033.22995001882	19.143283989171
0	40001	4052.373234007991	12.825211432913
0	40121	4065.198445440904	3.3700703220887
0	40151	4068.568515762993	18.114973358982
0	40345	4086.683489121975	34.711041378129
0	40617	4121.394530500104	15.404565411774
0	40745	4136.799095911878	5.7461491765677
0	40805	4142.545245088446	83.691853673935
0	41689	4226.237098762381	13.183608164191
0	41809	4239.420706926572	0.39944971905826
0	41813	4239.82015664563	9.0767382573464
0	41881	4248.896894902976	28.877645450369
0	42153	4277.774540353345	13.326133459037
0	42269	4291.100673812382	66.643652654318
0	42915	4357.7443264667	36.098785194884
0	43213	4393.843111661584	17.808580841917
0	43389	4411.651692503501	2.2462426314795
0	43407	4413.89793513498	12.763265491387
0	43549	4426.661200626367	21.877786711326
0	43725	4448.538987337693	4.054916316296
0	43765	4452.593903653989	4.4149097260255
0	43799	4457.008813380015	32.730786094552
0	44107	4489.739599474567	12.76440960166
0	44221	4502.504009076227	19.59834443778
0	44385	4522.102353514007	4.0331350522829
0	44411	4526.13548856629	3.1959312488545
0	44455	4529.331419815145	136.47660212187
0	45881	4665.80802193702	2.0723571968409
0	45905	4667.880379133861	26.022699284593
0	46123	4693.903078418454	15.03837364777
0	46285	4708.941452066224	29.606572627777
0	46527	4738.548024694001	34.828650641292
0	46889	4773.376675335293	24.589747910368
0	47113	4797.966423245661	10.329877119745
0	47195	4808.296300365406	69.434811108309
0	47789	4877.731111473715	5.7895040210649
0	47845	4883.52061549478	3.8485390350497
0	47885	4887.36915452983	2.2669757897044
0	47901	4889.636130319534	16.897362869526
0	48057	4906.53349318906	28.256220485773
0	48285	4934.789713674833	39.436068161605
0	48699	4974.225781836438	20.606245280955
0	48921	4994.832027117393	3.2256374914036
0	48979	4998.057664608797	37.450410655167
0	49329	5035.508075263964	60.176503790046
0	49949	5095.68457905401	30.978528274054
0	50253	5126.663107328064	20.361117162127
0	50457	5147.024224490191	29.560025447711
0	50733	5176.584249937902	82.691377904051
0	51501	5259.275627841953	68.980570585251
0	52113	5328.256198427204	2.1341312717138
0	52141	5330.390329698918	68.303687453657
0	52849	5398.694017152575	10.479360816624
0	52929	5409.173377969199	116.91011581951
0	54113	5526.083493788706	32.90408728041
0	54357	5558.987581069116	23.144679081514
0	54585	5582.13226015063	0.44519834122479
0	54599	5582.577458491855	0.92898512631393
0	54617	5583.506443618169	17.593976605117
0	54797	5601.100420223286	44.387629356281
0	55207	5645.488049579567	12.620807221891
0	55333	5658.108856801458	43.998840555754
0	55781	5702.107697357212	0.24615063046141
0	55785	5702.353847987673	25.894674766359
0	56001	5728.248522754032	12.671468574053
0	56125	5740.919991328085	4.1472196671349
0	56169	5745.06721099522	10.595170942791
0	56305	5755.662381938011	7.3487569720125
0	56431	5763.011138910024	11.244433993376
0	56531	5774.2555729034	1.6685976916465
0	56565	5775.924170595047	0.77964963860509
0	56573	5776.703820233652	3.7301178601529
0	56613	5780.433938093805	33.491424253892
0	56977	5813.925362347697	20.537875565287
0	57205	5834.463237912984	4.6258979014569
0	57249	5839.089135814441	2.8912548073254
0	57297	5841.980390621766	9.6522642864958
0	57409	5851.632654908262	26.49668424398
0	57689	5878.129339152242	75.454518386984
0	58347	5953.583857539226	40.943658820812
0	58707	5994.527516360038	25.061296268673
0	58915	6019.588812628711	9.3458179851867
0	59001	6028.934630613898	8.5178819652318
0	59113	6037.45251257913	39.271096830657
0	59549	6076.723609409787	25.420808285292
0	59765	6102.144417695079	8.9854534286919
0	59881	6111.129871123771	102.81322908335
0	60881	6213.94310020712	73.140965333287
0	61533	6287.084065540407	20.787491756287
0	61769	6307.871557296694	0.75464605419838
0	61773	6308.626203350892	11.007418496137
0	61889	6319.633621847029	8.1545609643111
0	61969	6327.78818281134	4.9619924578298
0	62045	6332.75017526917	9.2764394187475
0	62147	6342.026614687917	7.6286733731147
0	62237	6349.655288061032	71.077641558015
0	62873	6420.732929619047	48.195980578785
0	63397	6468.928910197832	33.182134031803
0	63719	6502.111044229635	3.3483567298069
0	63765	6505.459400959442	23.693297128743
0	63981	6529.152698088185	8.7202553730926
0	64049	6537.872953461278	95.587382973368
0	65067	6633.460336434646	21.826299816276
0	65261	6655.286636250922	84.865292414327
0	66169	6740.151928665249	12.509544978836
0	66337	6752.661473644085	7.7252137746149
0	66397	6760.3866874187	97.786604738233
0	67273	6858.173292156933	43.907528399845
0	67649	6902.080820556778	8.9806344391257
0	67769	6911.061454995904	8.1097605713729
0	67873	6919.171215567277	17.157597378256
0	68107	6936.328812945533	25.716168862085
0	68421	6962.044981807618	46.470271611235
0	68839	7008.515253418853	9.771074967538
0	68941	7018.286328386391	6.696381417643
0	68993	7024.982709804034	19.131248446768
0	69161	7044.113958250802	6.9696057800707
0	69213	7051.083564030873	7.9563161018591
0	69305	7059.039880132732	34.374191057583
0	69625	7093.414071190315	7.1151979728014
0	69683	7100.529269163116	37.843550614173
0	70051	7138.372819777289	33.360545042834
0	70357	7171.733364820123	49.558895343179
0	70773	7221.292260163302	13.15626472928
0	70913	7234.448524892582	24.306934954912
0	71125	7258.755459847494	62.683460579124
0	71777	7321.438920426618	7.638606133082
0	71849	7329.0775265597	46.371678696893
0	72385	7375.449205256593	17.848475421045
0	72557	7393.297680677638	0.17403440875786
0	72565	7393.471715086396	11.26653820402
0	72665	7404.738253290416	1.5623099473526
0	72687	7406.300563237769	19.973177553491
0	72913	7426.27374079126	20.703160871259
0	73171	7446.976901662519	14.084039187926
0	73309	7461.060940850445	33.371479587526
0	73611	7494.432420437971	2.0682407288059
0	73629	7496.500661166777	13.878820728609
0	73753	7510.379481895386	42.512931555038
0	74125	7552.892413450424	14.376871154211
0	74233	7567.269284604635	57.761921803384
0	74845	7625.031206408019	35.990718754123
0	75261	7661.021925162142	9.3675829710293
0	75355	7670.389508133171	0.90196509264431
0	75365	7671.291473225815	22.451337361819
0	75567	7693.742810587634	2.8263283712339
0	75617	7696.569138958868	51.028383050389
0	76145	7747.597522009257	2.2328877976411
0	76165	7749.830409806898	14.517353046443
0	76321	7764.347762853341	2.864232444653
0	76365	7767.211995297994	11.890423676623
0	76489	7779.102418974617	20.403973992114
0	76705	7799.506392966731	49.533657121487
0	77185	7849.040050088218	1.7609385922389
0	77205	7850.800988680457	15.209501985407
0	77373	7866.010490665864	3.4895522647055
0	77409	7869.50004293057	6.9218623674904
0	77481	7876.42190529806	1.1082592398355
0	77489	7877.530164537895	2.6120038926257
0	77521	7880.142168430521	2.4036194958037
0	77545	7882.545787926325	1.4234296118354
0	77569	7883.96921753816	1.9912209140137
0	77591	7885.960438452174	3.9460029466493
0	77641	7889.906441398823	17.002981107934
0	77833	7906.909422506757	58.386961541586
0	78325	7965.296384048343	17.05585697717
0	78505	7982.352241025513	8.9047394887251
0	78627	7991.256980514238	68.212016647032
0	79273	8059.46899716127	12.167775687832
0	79405	8071.636772849102	13.152124221822
0	79509	8084.788897070924	2.8485224833603
0	79529	8087.637419554284	2.3768962113471
0	79539	8090.014315765631	20.458138439
0	79757	8110.472454204631	5.8232531680112
0	79801	8116.295707372642	5.7547559627695
0	79877	8122.050463335412	7.1596264120978
0	79983	8129.21008974751	8.0122435519127
0	80097	8137.222333299423	13.039647804829
0	80217	8150.261981104252	3.7338834694267
0	80265	8153.995864573679	13.04929736804
0	80371	8167.045161941719	5.9037484435037
0	80437	8172.948910385223	0.36603662409351
0	80451	8173.314947009317	36.858946629964
0	80745	8210.173893639281	50.487571455725
0	81233	8260.661465095006	0.38434973904238
0	81237	8261.045814834048	11.670786591175
0	81365	8272.716601425223	1.2260726978468
0	81373	8273.94267412307	1.5272465931094
0	81381	8275.469920716179	8.4419256450401
0	81449	8283.911846361219	46.611814993793
0	81945	8330.523661355012	9.5842250222876
0	82001	8340.1078863773	35.329195801819
0	82357	8375.437082179119	7.7359603796816
0	82453	8383.173042558801	5.1223859626485
0	82501	8388.29542852145	24.846703759425
0	82725	8413.142132280875	48.847939461696
0	83229	8461.990071742571	29.294793786778
0	83501	8491.284865529349	17.651167762754
0	83693	8508.936033292103	8.2582253819055
0	83785	8517.194258674008	2.8953308321894
0	83813	8520.089589506197	21.71706078792
0	84009	8541.806650294117	14.622601875295
0	84201	8556.429252169412	15.198197646952
0	84349	8571.627449816364	6.2235638025153
0	84409	8577.851013618879	12.002235333904
0	84505	8589.853248952783	2.0694439791319
0	84513	8591.922692931915	7.2598098594436
0	84587	8599.182502791359	2.0210684862243
0	84619	8601.203571277583	0.59174197519116
0	84625	8601.795313252774	13.004036562442
0	84745	8614.799349815216	42.097775882256
0	85189	8656.897125697472	16.773604627162
0	85345	8673.670730324634	7.0367890561228
0	85421	8680.707519380757	30.397215739761
0	85673	8711.104735120518	3.593522040469
0	85725	8714.698257160987	15.98254303893
0	85861	8730.680800199917	3.3549838353333
0	85897	8734.03578403525	31.176382815665
0	86197	8765.212166850915	3.4903120167457
0	86245	8768.702478867661	12.436217192863
0	86375	8781.138696060524	3.8462944145522
0	86441	8784.984990475076	0.17944274454408
0	86449	8785.16443321962	10.983731744946
0	86561	8796.148164964566	52.358203310067