file 5980070 1767628864                                         
version 3
run Uniform-57-20260105-17:01:04-25051
attr configname Uniform
attr datetime 20260105-17:01:04
attr datetimef 20260105-170104
attr experiment Uniform
attr inifile omnetpp.ini
attr iterationvars "$N=100, $p=0.5"
attr iterationvarsd N=100/p=0.5
attr iterationvarsf N=100,p=0.5-
attr measurement "$N=100, $p=0.5"
attr network progetto.DatabaseNetwork
attr processid 25051
attr repetition 2
attr replication #2
attr resultdir results
attr runnumber 57
attr seedset 2
itervar N 100
itervar p 0.5
config description "Uniform distribution - varia N e p"
config *.user[*].tableDistribution "\"uniform\""
config *.numUsers 100
config *.user[*].readProbability 0.5
config network progetto.DatabaseNetwork
config sim-time-limit 10000s
config cpu-time-limit 3600s
config repeat 5
config seed-set 2
config output-vector-file "results/Uniform-$N=100, $p=0.5-2.vec"
config output-scalar-file "results/Uniform-$N=100, $p=0.5-2.sca"
config result-dir results
config **.vector-recording true
config **.scalar-recording true
config *.numTables 20
config *.user[*].lambda 0.05
config *.user[*].serviceTime 0.1s

vector 0 DatabaseNetwork.user[0] AccessInterval ETV
vector 1 DatabaseNetwork.user[1] AccessInterval ETV
vector 2 DatabaseNetwork.user[2] AccessInterval ETV
vector 3 DatabaseNetwork.user[3] AccessInterval ETV
vector 4 DatabaseNetwork.user[4] AccessInterval ETV
vector 5 DatabaseNetwork.user[5] AccessInterval ETV
vector 6 DatabaseNetwork.user[6] AccessInterval ETV
vector 7 DatabaseNetwork.user[7] AccessInterval ETV
vector 8 DatabaseNetwork.user[8] AccessInterval ETV
vector 9 DatabaseNetwork.user[9] AccessInterval ETV
vector 10 DatabaseNetwork.user[10] AccessInterval ETV
vector 11 DatabaseNetwork.user[11] AccessInterval ETV
vector 12 DatabaseNetwork.user[12] AccessInterval ETV
vector 13 DatabaseNetwork.user[13] AccessInterval ETV
vector 14 DatabaseNetwork.user[14] AccessInterval ETV
vector 15 DatabaseNetwork.user[15] AccessInterval ETV
vector 16 DatabaseNetwork.user[16] AccessInterval ETV
vector 17 DatabaseNetwork.user[17] AccessInterval ETV
vector 18 DatabaseNetwork.user[18] AccessInterval ETV
vector 19 DatabaseNetwork.user[19] AccessInterval ETV
vector 20 DatabaseNetwork.user[20] AccessInterval ETV
vector 21 DatabaseNetwork.user[21] AccessInterval ETV
vector 22 DatabaseNetwork.user[22] AccessInterval ETV
vector 23 DatabaseNetwork.user[23] AccessInterval ETV
vector 24 DatabaseNetwork.user[24] AccessInterval ETV
vector 25 DatabaseNetwork.user[25] AccessInterval ETV
vector 26 DatabaseNetwork.user[26] AccessInterval ETV
vector 27 DatabaseNetwork.user[27] AccessInterval ETV
vector 28 DatabaseNetwork.user[28] AccessInterval ETV
vector 29 DatabaseNetwork.user[29] AccessInterval ETV
vector 30 DatabaseNetwork.user[30] AccessInterval ETV
vector 31 DatabaseNetwork.user[31] AccessInterval ETV
vector 32 DatabaseNetwork.user[32] AccessInterval ETV
vector 33 DatabaseNetwork.user[33] AccessInterval ETV
vector 34 DatabaseNetwork.user[34] AccessInterval ETV
vector 35 DatabaseNetwork.user[35] AccessInterval ETV
vector 36 DatabaseNetwork.user[36] AccessInterval ETV
vector 37 DatabaseNetwork.user[37] AccessInterval ETV
vector 38 DatabaseNetwork.user[38] AccessInterval ETV
vector 39 DatabaseNetwork.user[39] AccessInterval ETV
vector 40 DatabaseNetwork.user[40] AccessInterval ETV
vector 41 DatabaseNetwork.user[41] AccessInterval ETV
vector 42 DatabaseNetwork.user[42] AccessInterval ETV
vector 43 DatabaseNetwork.user[43] AccessInterval ETV
vector 44 DatabaseNetwork.user[44] AccessInterval ETV
vector 45 DatabaseNetwork.user[45] AccessInterval ETV
vector 46 DatabaseNetwork.user[46] AccessInterval ETV
vector 47 DatabaseNetwork.user[47] AccessInterval ETV
vector 48 DatabaseNetwork.user[48] AccessInterval ETV
vector 49 DatabaseNetwork.user[49] AccessInterval ETV
vector 50 DatabaseNetwork.user[50] AccessInterval ETV
vector 51 DatabaseNetwork.user[51] AccessInterval ETV
vector 52 DatabaseNetwork.user[52] AccessInterval ETV
vector 53 DatabaseNetwork.user[53] AccessInterval ETV
vector 54 DatabaseNetwork.user[54] AccessInterval ETV
vector 55 DatabaseNetwork.user[55] AccessInterval ETV
vector 56 DatabaseNetwork.user[56] AccessInterval ETV
vector 57 DatabaseNetwork.user[57] AccessInterval ETV
vector 58 DatabaseNetwork.user[58] AccessInterval ETV
vector 59 DatabaseNetwork.user[59] AccessInterval ETV
vector 60 DatabaseNetwork.user[60] AccessInterval ETV
vector 61 DatabaseNetwork.user[61] AccessInterval ETV
vector 62 DatabaseNetwork.user[62] AccessInterval ETV
vector 63 DatabaseNetwork.user[63] AccessInterval ETV
vector 64 DatabaseNetwork.user[64] AccessInterval ETV
vector 65 DatabaseNetwork.user[65] AccessInterval ETV
vector 66 DatabaseNetwork.user[66] AccessInterval ETV
vector 67 DatabaseNetwork.user[67] AccessInterval ETV
vector 68 DatabaseNetwork.user[68] AccessInterval ETV
vector 69 DatabaseNetwork.user[69] AccessInterval ETV
vector 70 DatabaseNetwork.user[70] AccessInterval ETV
vector 71 DatabaseNetwork.user[71] AccessInterval ETV
vector 72 DatabaseNetwork.user[72] AccessInterval ETV
vector 73 DatabaseNetwork.user[73] AccessInterval ETV
vector 74 DatabaseNetwork.user[74] AccessInterval ETV
vector 75 DatabaseNetwork.user[75] AccessInterval ETV
vector 76 DatabaseNetwork.user[76] AccessInterval ETV
vector 77 DatabaseNetwork.user[77] AccessInterval ETV
vector 78 DatabaseNetwork.user[78] AccessInterval ETV
vector 79 DatabaseNetwork.user[79] AccessInterval ETV
vector 80 DatabaseNetwork.user[80] AccessInterval ETV
vector 81 DatabaseNetwork.user[81] AccessInterval ETV
vector 82 DatabaseNetwork.user[82] AccessInterval ETV
vector 83 DatabaseNetwork.user[83] AccessInterval ETV
vector 84 DatabaseNetwork.user[84] AccessInterval ETV
vector 85 DatabaseNetwork.user[85] AccessInterval ETV
vector 86 DatabaseNetwork.user[86] AccessInterval ETV
vector 87 DatabaseNetwork.user[87] AccessInterval ETV
vector 88 DatabaseNetwork.user[88] AccessInterval ETV
vector 89 DatabaseNetwork.user[89] AccessInterval ETV
vector 90 DatabaseNetwork.user[90] AccessInterval ETV
vector 91 DatabaseNetwork.user[91] AccessInterval ETV
vector 92 DatabaseNetwork.user[92] AccessInterval ETV
vector 93 DatabaseNetwork.user[93] AccessInterval ETV
vector 94 DatabaseNetwork.user[94] AccessInterval ETV
vector 95 DatabaseNetwork.user[95] AccessInterval ETV
vector 96 DatabaseNetwork.user[96] AccessInterval ETV
vector 97 DatabaseNetwork.user[97] AccessInterval ETV
vector 98 DatabaseNetwork.user[98] AccessInterval ETV
vector 99 DatabaseNetwork.user[99] AccessInterval ETV
vector 100 DatabaseNetwork.user[2] WriteAccesses ETV
vector 101 DatabaseNetwork.user[2] WaitTime ETV
vector 102 DatabaseNetwork.user[42] ReadAccesses ETV
vector 103 DatabaseNetwork.user[42] WaitTime ETV
vector 104 DatabaseNetwork.user[38] WriteAccesses ETV
vector 105 DatabaseNetwork.user[38] WaitTime ETV
vector 106 DatabaseNetwork.user[46] ReadAccesses ETV
vector 107 DatabaseNetwork.user[46] WaitTime ETV
vector 108 DatabaseNetwork.user[2] ReadAccesses ETV
vector 109 DatabaseNetwork.user[54] WriteAccesses ETV
vector 110 DatabaseNetwork.user[54] WaitTime ETV
vector 111 DatabaseNetwork.user[45] WriteAccesses ETV
vector 112 DatabaseNetwork.user[75] ReadAccesses ETV
vector 113 DatabaseNetwork.user[15] ReadAccesses ETV
vector 114 DatabaseNetwork.user[45] WaitTime ETV
vector 115 DatabaseNetwork.user[75] WaitTime ETV
vector 116 DatabaseNetwork.user[15] WaitTime ETV
vector 117 DatabaseNetwork.user[48] ReadAccesses ETV
vector 118 DatabaseNetwork.user[48] WaitTime ETV
vector 119 DatabaseNetwork.user[24] WriteAccesses ETV
vector 120 DatabaseNetwork.user[24] WaitTime ETV
vector 121 DatabaseNetwork.user[77] WriteAccesses ETV
vector 122 DatabaseNetwork.user[77] WaitTime ETV
vector 123 DatabaseNetwork.user[11] WriteAccesses ETV
vector 124 DatabaseNetwork.user[11] WaitTime ETV
vector 125 DatabaseNetwork.user[76] ReadAccesses ETV
vector 126 DatabaseNetwork.user[76] WaitTime ETV
vector 127 DatabaseNetwork.user[59] ReadAccesses ETV
vector 128 DatabaseNetwork.user[59] WaitTime ETV
vector 129 DatabaseNetwork.user[37] ReadAccesses ETV
vector 130 DatabaseNetwork.user[37] WaitTime ETV
vector 131 DatabaseNetwork.user[47] WriteAccesses ETV
vector 132 DatabaseNetwork.user[28] ReadAccesses ETV
vector 133 DatabaseNetwork.user[1] WriteAccesses ETV
vector 134 DatabaseNetwork.user[47] WaitTime ETV
vector 135 DatabaseNetwork.user[28] WaitTime ETV
vector 136 DatabaseNetwork.user[1] WaitTime ETV
vector 137 DatabaseNetwork.user[62] ReadAccesses ETV
vector 138 DatabaseNetwork.user[12] ReadAccesses ETV
vector 139 DatabaseNetwork.user[62] WaitTime ETV
vector 140 DatabaseNetwork.user[12] WaitTime ETV
vector 141 DatabaseNetwork.user[83] WriteAccesses ETV
vector 142 DatabaseNetwork.user[56] ReadAccesses ETV
vector 143 DatabaseNetwork.user[83] WaitTime ETV
vector 144 DatabaseNetwork.user[53] WriteAccesses ETV
vector 145 DatabaseNetwork.user[56] WaitTime ETV
vector 146 DatabaseNetwork.user[53] WaitTime ETV
vector 147 DatabaseNetwork.user[52] WriteAccesses ETV
vector 148 DatabaseNetwork.user[52] WaitTime ETV
vector 149 DatabaseNetwork.user[31] WriteAccesses ETV
vector 150 DatabaseNetwork.user[89] ReadAccesses ETV
vector 151 DatabaseNetwork.user[31] WaitTime ETV
vector 152 DatabaseNetwork.user[89] WaitTime ETV
vector 153 DatabaseNetwork.user[18] WriteAccesses ETV
vector 154 DatabaseNetwork.user[18] WaitTime ETV
vector 155 DatabaseNetwork.user[97] WriteAccesses ETV
vector 156 DatabaseNetwork.user[97] WaitTime ETV
vector 157 DatabaseNetwork.user[43] ReadAccesses ETV
vector 158 DatabaseNetwork.user[43] WaitTime ETV
vector 159 DatabaseNetwork.user[41] WriteAccesses ETV
vector 160 DatabaseNetwork.user[16] ReadAccesses ETV
vector 161 DatabaseNetwork.user[41] WaitTime ETV
vector 162 DatabaseNetwork.user[16] WaitTime ETV
vector 163 DatabaseNetwork.user[87] ReadAccesses ETV
vector 164 DatabaseNetwork.user[87] WaitTime ETV
vector 165 DatabaseNetwork.user[9] WriteAccesses ETV
vector 166 DatabaseNetwork.user[9] WaitTime ETV
vector 167 DatabaseNetwork.user[10] WriteAccesses ETV
vector 168 DatabaseNetwork.user[10] WaitTime ETV
vector 169 DatabaseNetwork.user[86] WriteAccesses ETV
vector 170 DatabaseNetwork.user[86] WaitTime ETV
vector 171 DatabaseNetwork.user[58] WriteAccesses ETV
vector 172 DatabaseNetwork.user[58] WaitTime ETV
vector 173 DatabaseNetwork.user[93] ReadAccesses ETV
vector 174 DatabaseNetwork.user[93] WaitTime ETV
vector 175 DatabaseNetwork.user[61] WriteAccesses ETV
vector 176 DatabaseNetwork.user[61] WaitTime ETV
vector 177 DatabaseNetwork.user[11] ReadAccesses ETV
vector 178 DatabaseNetwork.user[70] ReadAccesses ETV
vector 179 DatabaseNetwork.user[70] WaitTime ETV
vector 180 DatabaseNetwork.user[56] WriteAccesses ETV
vector 181 DatabaseNetwork.user[35] ReadAccesses ETV
vector 182 DatabaseNetwork.user[35] WaitTime ETV
vector 183 DatabaseNetwork.user[8] WriteAccesses ETV
vector 184 DatabaseNetwork.user[8] WaitTime ETV
vector 185 DatabaseNetwork.user[90] ReadAccesses ETV
vector 186 DatabaseNetwork.user[44] WriteAccesses ETV
vector 187 DatabaseNetwork.user[90] WaitTime ETV
vector 188 DatabaseNetwork.user[44] WaitTime ETV
vector 189 DatabaseNetwork.user[6] ReadAccesses ETV
vector 190 DatabaseNetwork.user[0] ReadAccesses ETV
vector 191 DatabaseNetwork.user[92] ReadAccesses ETV
vector 192 DatabaseNetwork.user[6] WaitTime ETV
vector 193 DatabaseNetwork.user[0] WaitTime ETV
vector 194 DatabaseNetwork.user[92] WaitTime ETV
vector 195 DatabaseNetwork.user[62] WriteAccesses ETV
vector 196 DatabaseNetwork.user[38] ReadAccesses ETV
vector 197 DatabaseNetwork.user[86] ReadAccesses ETV
vector 198 DatabaseNetwork.user[60] ReadAccesses ETV
vector 199 DatabaseNetwork.user[95] ReadAccesses ETV
vector 200 DatabaseNetwork.user[63] ReadAccesses ETV
vector 201 DatabaseNetwork.user[60] WaitTime ETV
vector 202 DatabaseNetwork.user[95] WaitTime ETV
vector 203 DatabaseNetwork.user[63] WaitTime ETV
vector 204 DatabaseNetwork.user[66] ReadAccesses ETV
vector 205 DatabaseNetwork.user[7] WriteAccesses ETV
vector 206 DatabaseNetwork.user[17] ReadAccesses ETV
vector 207 DatabaseNetwork.user[61] ReadAccesses ETV
vector 208 DatabaseNetwork.user[66] WaitTime ETV
vector 209 DatabaseNetwork.user[7] WaitTime ETV
vector 210 DatabaseNetwork.user[17] WaitTime ETV
vector 211 DatabaseNetwork.user[34] ReadAccesses ETV
vector 212 DatabaseNetwork.user[49] ReadAccesses ETV
vector 213 DatabaseNetwork.user[34] WaitTime ETV
vector 214 DatabaseNetwork.user[49] WaitTime ETV
vector 215 DatabaseNetwork.user[25] WriteAccesses ETV
vector 216 DatabaseNetwork.user[82] ReadAccesses ETV
vector 217 DatabaseNetwork.user[25] WaitTime ETV
vector 218 DatabaseNetwork.user[82] WaitTime ETV
vector 219 DatabaseNetwork.user[68] WriteAccesses ETV
vector 220 DatabaseNetwork.user[40] WriteAccesses ETV
vector 221 DatabaseNetwork.user[68] WaitTime ETV
vector 222 DatabaseNetwork.user[40] WaitTime ETV
vector 223 DatabaseNetwork.user[81] WriteAccesses ETV
vector 224 DatabaseNetwork.user[81] WaitTime ETV
vector 225 DatabaseNetwork.user[26] WriteAccesses ETV
vector 226 DatabaseNetwork.user[26] WaitTime ETV
vector 227 DatabaseNetwork.user[47] ReadAccesses ETV
vector 228 DatabaseNetwork.user[22] ReadAccesses ETV
vector 229 DatabaseNetwork.user[22] WaitTime ETV
vector 230 DatabaseNetwork.user[28] WriteAccesses ETV
vector 231 DatabaseNetwork.user[96] WriteAccesses ETV
vector 232 DatabaseNetwork.user[96] WaitTime ETV
vector 233 DatabaseNetwork.user[22] WriteAccesses ETV
vector 234 DatabaseNetwork.user[33] ReadAccesses ETV
vector 235 DatabaseNetwork.user[33] WaitTime ETV
vector 236 DatabaseNetwork.user[4] WriteAccesses ETV
vector 237 DatabaseNetwork.user[4] WaitTime ETV
vector 238 DatabaseNetwork.user[51] WriteAccesses ETV
vector 239 DatabaseNetwork.user[88] WriteAccesses ETV
vector 240 DatabaseNetwork.user[51] WaitTime ETV
vector 241 DatabaseNetwork.user[88] WaitTime ETV
vector 242 DatabaseNetwork.user[57] ReadAccesses ETV
vector 243 DatabaseNetwork.user[57] WaitTime ETV
vector 244 DatabaseNetwork.user[74] WriteAccesses ETV
vector 245 DatabaseNetwork.user[74] WaitTime ETV
vector 246 DatabaseNetwork.user[81] ReadAccesses ETV
vector 247 DatabaseNetwork.user[44] ReadAccesses ETV
vector 248 DatabaseNetwork.user[8] ReadAccesses ETV
vector 249 DatabaseNetwork.user[27] ReadAccesses ETV
vector 250 DatabaseNetwork.user[27] WaitTime ETV
vector 251 DatabaseNetwork.user[17] WriteAccesses ETV
vector 252 DatabaseNetwork.user[50] ReadAccesses ETV
vector 253 DatabaseNetwork.user[50] WaitTime ETV
vector 254 DatabaseNetwork.user[89] WriteAccesses ETV
vector 255 DatabaseNetwork.user[71] WriteAccesses ETV
vector 256 DatabaseNetwork.user[71] WaitTime ETV
vector 257 DatabaseNetwork.user[14] ReadAccesses ETV
vector 258 DatabaseNetwork.user[20] ReadAccesses ETV
vector 259 DatabaseNetwork.user[14] WaitTime ETV
vector 260 DatabaseNetwork.user[20] WaitTime ETV
vector 261 DatabaseNetwork.user[19] ReadAccesses ETV
vector 262 DatabaseNetwork.user[19] WaitTime ETV
vector 263 DatabaseNetwork.user[64] WriteAccesses ETV
vector 264 DatabaseNetwork.user[64] WaitTime ETV
vector 265 DatabaseNetwork.user[65] ReadAccesses ETV
vector 266 DatabaseNetwork.user[65] WaitTime ETV
vector 267 DatabaseNetwork.user[69] ReadAccesses ETV
vector 268 DatabaseNetwork.user[69] WaitTime ETV
vector 269 DatabaseNetwork.user[60] WriteAccesses ETV
vector 270 DatabaseNetwork.user[63] WriteAccesses ETV
vector 271 DatabaseNetwork.user[23] ReadAccesses ETV
vector 272 DatabaseNetwork.user[23] WaitTime ETV
vector 273 DatabaseNetwork.user[25] ReadAccesses ETV
vector 274 DatabaseNetwork.user[58] ReadAccesses ETV
vector 275 DatabaseNetwork.user[13] WriteAccesses ETV
vector 276 DatabaseNetwork.user[13] WaitTime ETV
vector 277 DatabaseNetwork.user[78] ReadAccesses ETV
vector 278 DatabaseNetwork.user[78] WaitTime ETV
vector 279 DatabaseNetwork.user[33] WriteAccesses ETV
vector 280 DatabaseNetwork.user[68] ReadAccesses ETV
vector 281 DatabaseNetwork.user[12] WriteAccesses ETV
vector 282 DatabaseNetwork.user[29] WriteAccesses ETV
vector 283 DatabaseNetwork.user[29] WaitTime ETV
vector 284 DatabaseNetwork.user[69] WriteAccesses ETV
vector 285 DatabaseNetwork.user[53] ReadAccesses ETV
vector 286 DatabaseNetwork.user[83] ReadAccesses ETV
vector 287 DatabaseNetwork.user[54] ReadAccesses ETV
vector 288 DatabaseNetwork.user[9] ReadAccesses ETV
vector 289 DatabaseNetwork.user[40] ReadAccesses ETV
vector 290 DatabaseNetwork.user[57] WriteAccesses ETV
vector 291 DatabaseNetwork.user[24] ReadAccesses ETV
vector 292 DatabaseNetwork.user[23] WriteAccesses ETV
vector 293 DatabaseNetwork.user[82] WriteAccesses ETV
vector 294 DatabaseNetwork.user[66] WriteAccesses ETV
vector 295 DatabaseNetwork.user[55] WriteAccesses ETV
vector 296 DatabaseNetwork.user[55] WaitTime ETV
vector 297 DatabaseNetwork.user[46] WriteAccesses ETV
vector 298 DatabaseNetwork.user[94] ReadAccesses ETV
vector 299 DatabaseNetwork.user[55] ReadAccesses ETV
vector 300 DatabaseNetwork.user[94] WaitTime ETV
vector 301 DatabaseNetwork.user[20] WriteAccesses ETV
vector 302 DatabaseNetwork.user[30] WriteAccesses ETV
vector 303 DatabaseNetwork.user[30] WaitTime ETV
vector 304 DatabaseNetwork.user[67] WriteAccesses ETV
vector 305 DatabaseNetwork.user[72] WriteAccesses ETV
vector 306 DatabaseNetwork.user[67] WaitTime ETV
vector 307 DatabaseNetwork.user[72] WaitTime ETV
vector 308 DatabaseNetwork.user[6] WriteAccesses ETV
vector 309 DatabaseNetwork.user[99] WriteAccesses ETV
vector 310 DatabaseNetwork.user[99] WaitTime ETV
vector 311 DatabaseNetwork.user[91] WriteAccesses ETV
vector 312 DatabaseNetwork.user[91] WaitTime ETV
vector 313 DatabaseNetwork.user[21] WriteAccesses ETV
vector 314 DatabaseNetwork.user[21] WaitTime ETV
vector 315 DatabaseNetwork.user[10] ReadAccesses ETV
vector 316 DatabaseNetwork.user[13] ReadAccesses ETV
vector 317 DatabaseNetwork.user[29] ReadAccesses ETV
vector 318 DatabaseNetwork.user[36] ReadAccesses ETV
vector 319 DatabaseNetwork.user[36] WaitTime ETV
vector 320 DatabaseNetwork.user[67] ReadAccesses ETV
vector 321 DatabaseNetwork.user[79] ReadAccesses ETV
vector 322 DatabaseNetwork.user[49] WriteAccesses ETV
vector 323 DatabaseNetwork.user[79] WaitTime ETV
vector 324 DatabaseNetwork.user[32] WriteAccesses ETV
vector 325 DatabaseNetwork.user[32] WaitTime ETV
vector 326 DatabaseNetwork.user[41] ReadAccesses ETV
vector 327 DatabaseNetwork.user[76] WriteAccesses ETV
vector 328 DatabaseNetwork.user[94] WriteAccesses ETV
vector 329 DatabaseNetwork.user[65] WriteAccesses ETV
vector 330 DatabaseNetwork.user[15] WriteAccesses ETV
vector 331 DatabaseNetwork.user[0] WriteAccesses ETV
vector 332 DatabaseNetwork.user[90] WriteAccesses ETV
vector 333 DatabaseNetwork.user[34] WriteAccesses ETV
vector 334 DatabaseNetwork.user[35] WriteAccesses ETV
vector 335 DatabaseNetwork.user[92] WriteAccesses ETV
vector 336 DatabaseNetwork.user[79] WriteAccesses ETV
vector 337 DatabaseNetwork.user[84] ReadAccesses ETV
vector 338 DatabaseNetwork.user[84] WaitTime ETV
vector 339 DatabaseNetwork.user[96] ReadAccesses ETV
vector 340 DatabaseNetwork.user[18] ReadAccesses ETV
vector 341 DatabaseNetwork.user[99] ReadAccesses ETV
vector 342 DatabaseNetwork.user[50] WriteAccesses ETV
vector 343 DatabaseNetwork.user[4] ReadAccesses ETV
vector 344 DatabaseNetwork.user[30] ReadAccesses ETV
vector 345 DatabaseNetwork.user[70] WriteAccesses ETV
vector 346 DatabaseNetwork.user[26] ReadAccesses ETV
vector 347 DatabaseNetwork.user[32] ReadAccesses ETV
vector 348 DatabaseNetwork.user[16] WriteAccesses ETV
vector 349 DatabaseNetwork.user[3] ReadAccesses ETV
vector 350 DatabaseNetwork.user[3] WaitTime ETV
vector 351 DatabaseNetwork.user[91] ReadAccesses ETV
vector 352 DatabaseNetwork.user[74] ReadAccesses ETV
vector 353 DatabaseNetwork.user[43] WriteAccesses ETV
vector 354 DatabaseNetwork.user[5] WriteAccesses ETV
vector 355 DatabaseNetwork.user[5] WaitTime ETV
vector 356 DatabaseNetwork.user[48] WriteAccesses ETV
vector 357 DatabaseNetwork.user[36] WriteAccesses ETV
vector 358 DatabaseNetwork.user[72] ReadAccesses ETV
vector 359 DatabaseNetwork.user[98] ReadAccesses ETV
vector 360 DatabaseNetwork.user[98] WaitTime ETV
vector 361 DatabaseNetwork.user[52] ReadAccesses ETV
vector 362 DatabaseNetwork.user[27] WriteAccesses ETV
vector 363 DatabaseNetwork.user[19] WriteAccesses ETV
vector 364 DatabaseNetwork.user[80] ReadAccesses ETV
vector 365 DatabaseNetwork.user[80] WaitTime ETV
vector 366 DatabaseNetwork.user[75] WriteAccesses ETV
vector 367 DatabaseNetwork.user[5] ReadAccesses ETV
vector 368 DatabaseNetwork.user[93] WriteAccesses ETV
vector 369 DatabaseNetwork.user[51] ReadAccesses ETV
vector 370 DatabaseNetwork.user[39] WriteAccesses ETV
vector 371 DatabaseNetwork.user[39] WaitTime ETV
vector 372 DatabaseNetwork.user[3] WriteAccesses ETV
vector 373 DatabaseNetwork.user[31] ReadAccesses ETV
vector 374 DatabaseNetwork.user[45] ReadAccesses ETV
vector 375 DatabaseNetwork.user[80] WriteAccesses ETV
vector 376 DatabaseNetwork.user[37] WriteAccesses ETV
vector 377 DatabaseNetwork.user[21] ReadAccesses ETV
vector 378 DatabaseNetwork.user[97] ReadAccesses ETV
vector 379 DatabaseNetwork.user[87] WriteAccesses ETV
vector 380 DatabaseNetwork.user[14] WriteAccesses ETV
vector 381 DatabaseNetwork.user[77] ReadAccesses ETV
vector 382 DatabaseNetwork.user[1] ReadAccesses ETV
vector 383 DatabaseNetwork.user[73] WriteAccesses ETV
vector 384 DatabaseNetwork.user[73] WaitTime ETV
vector 385 DatabaseNetwork.user[95] WriteAccesses ETV
vector 386 DatabaseNetwork.user[64] ReadAccesses ETV
vector 387 DatabaseNetwork.user[85] ReadAccesses ETV
vector 388 DatabaseNetwork.user[85] WaitTime ETV
vector 389 DatabaseNetwork.user[88] ReadAccesses ETV
vector 390 DatabaseNetwork.user[84] WriteAccesses ETV
vector 391 DatabaseNetwork.user[42] WriteAccesses ETV
vector 392 DatabaseNetwork.user[59] WriteAccesses ETV
vector 393 DatabaseNetwork.user[78] WriteAccesses ETV
vector 394 DatabaseNetwork.user[39] ReadAccesses ETV
vector 395 DatabaseNetwork.user[85] WriteAccesses ETV
vector 396 DatabaseNetwork.user[98] WriteAccesses ETV
vector 397 DatabaseNetwork.user[71] ReadAccesses ETV
vector 398 DatabaseNetwork.user[7] ReadAccesses ETV
vector 399 DatabaseNetwork.user[73] ReadAccesses ETV
0	22052 20130 0 198357 0 9900.949227865446 478 0.019364545770003 127.50141677399 10028.450644639 418976.78479212
1	42182 20125 0 197581 0 9863.788446482912 478 0.03960950523258 159.77050590897 10023.558952392 442022.68174096
2	62307 20088 0 200137 0 9989.265601583775 476 0.0083763041967624 124.08907302028 10023.163670677 442621.27554609
3	82395 23330 0 199785 0 9974.377940555771 553 0.04879864938314 161.37002327813 10031.387331238 367998.74854551
4	105725 24146 0 200051 0 9984.805079651902 573 0.05525104636109 139.01591300871 10009.229316477 360315.34433691
5	129871 20388 0 200197 0 9992.356400619506 485 0.050242669086889 191.7497072224 10011.282436869 420922.0528997
6	150259 21035 0 198957 0 9933.968440405297 500 0.017878998269597 101.250990062 10009.59639433 357792.9455783
7	171294 21873 0 199937 0 9981.167077922596 519 0.013838088286435 136.43154034498 10010.777171105 408307.58256523
8	193167 20034 0 199149 0 9943.55763355426 476 0.0062926279538108 157.20304923427 10003.622444998 412834.8769035
9	213201 22360 0 199955 0 9981.493939295761 531 0.032339393002926 171.10659978863 10031.182965323 370753.41128822
10	235561 22095 0 200181 0 9991.500297210211 513 0.037357265695072 111.26039435657 10002.052939468 381343.73995099
11	257656 21465 0 200273 0 9995.425688102913 498 0.079520672012639 128.107055532 10024.754956129 403981.97904438
12	279121 22357 0 200029 0 9984.078413512393 518 0.023981544135662 145.50755582504 10000.998915866 382642.34196399
13	301478 20577 0 198231 0 9896.009457083618 476 0.0097342423724849 159.28852873875 10007.460508526 442349.36039866
14	322055 22202 0 199815 0 9975.478362553215 515 0.0077673227493106 124.04164614975 10018.824638215 369681.5683418
15	344257 21263 0 200319 0 9997.54123912811 493 0.0088188586538708 115.88316446977 10030.553405788 391849.92006289
16	365520 22696 0 199761 0 9973.739469191143 526 0.020323879310799 150.99100752428 10021.252850392 433768.28312022
17	388216 20515 0 200023 0 9984.053814888223 476 0.00040577670548762 155.6115511679 10003.548875115 447445.89475729
18	408731 23098 0 200299 0 9996.50302707916 535 0.022141766178129 101.51217123386 10042.033912451 343757.04928017
19	431829 21899 0 200241 0 9993.664892199254 508 0.030838470345357 122.57922859247 10028.45455575 389050.29197138
20	453728 22327 0 199905 0 9979.898621583216 518 0.011194971020815 109.61641885379 10009.602679614 375266.39624835
21	476055 21791 0 200361 0 9998.651306876769 505 0.011043327957972 131.27169607919 10011.479078121 397656.26434331
22	497846 20405 0 200085 0 9987.14172737563 473 0.022662767830387 145.09976908843 10050.825809231 432250.65543422
23	518251 22756 0 199299 0 9950.451176768665 528 0.018798665389712 92.805934156357 10006.701636474 355826.38223033
24	541007 22975 0 200215 0 9992.52374082149 533 0.0024986896564769 128.12485096199 10031.854508503 367603.58069747
25	563982 22057 0 200259 0 9994.455211493586 512 0.073095082842879 112.28465030695 10023.886287848 388961.28422735
26	586039 22312 0 199621 0 9966.192608128264 518 0.021574306167035 136.99521653231 10038.181936705 386548.80593094
27	608351 22910 0 200129 0 9989.013813460084 532 0.012684928637456 106.5787811825 10075.731912189 385685.84253685
28	631261 22936 0 199335 0 9952.815645894062 532 0.010733685591774 102.55753412533 10039.052203821 381256.59886759
29	654197 21858 0 199241 0 9948.186665975959 507 0.072339856564339 131.35346484747 10025.165812007 381267.12473288
30	676055 22394 0 200195 0 9992.356372936798 519 0.040731970902731 106.0648828268 10011.384382206 376885.04954173
31	698449 21454 0 200199 0 9992.359548596501 497 0.018044461216533 146.28356628561 10006.74000943 393460.92557953
32	719903 19619 0 200325 0 9997.673206686 455 0.013848204792774 141.98489571104 10031.106191887 444125.91670896
33	739522 22301 0 199913 0 9980.358047521049 517 0.053267692741521 112.8485660445 10008.699019784 371734.51864771
34	761823 19807 0 199201 0 9945.599721893657 459 0.038185843498133 121.99434838863 10016.189116443 430121.12859821
35	781630 21377 0 199819 0 9975.575080128945 496 0.003009758101703 103.83686899792 10002.136831532 389704.82355608
36	803007 23178 0 200013 0 9983.595751349447 537 0.063230689340575 139.16495389595 10001.711877839 393146.67194755
37	826185 21712 0 200339 0 9998.094927016864 503 0.022665634894449 116.43038459082 10015.56096288 404228.43387512
38	847897 23620 0 200365 0 9999.471255909291 547 0.0032700197987086 124.8887569539 10001.110198684 364259.44504836
39	871517 21541 0 199165 0 9944.446784835012 499 0.072803504494451 155.3571778504 10011.7084753 407715.38655043
40	893058 21702 0 200191 0 9992.310975011016 503 0.03783842448412 142.63700114426 10017.33200338 446284.40108638
41	914760 20225 0 200351 0 9998.421682918496 469 0.0069814158665813 122.12772395692 10000.503295684 419214.0144562
42	934985 20999 0 200275 0 9995.482655400158 487 0.0073829647269744 183.30135683622 10005.852046253 428327.68183004
43	955984 22091 0 199213 0 9946.082696541714 511 0.15536399481547 105.96336311179 10006.489701585 374179.95019208
44	978075 21194 0 200037 0 9984.168916405807 492 0.044592636476949 133.63401158679 10001.376211275 422258.65995972
45	999269 21770 0 200301 0 9996.510108872035 505 0.0081008638654811 153.46556581866 10020.157345258 397760.75553911
46	1021039 20907 0 198759 0 9923.756626682912 485 0.022434499569209 147.64279910535 10010.828364567 406430.26405824
47	1041946 20277 0 200089 0 9987.327069445926 471 0.0962174488859 153.73009963612 10031.4131919 426878.16086756
48	1062223 21137 0 200345 0 9998.196310322719 490 0.012918024847477 97.361924594596 10011.501573129 383607.70920945
49	1083360 21259 0 200177 0 9991.085278744585 493 0.10303982030575 123.37634884236 10004.768876522 391607.89797341
50	1104619 20626 0 200141 0 9989.566938932917 478 0.052298616657564 177.47867396712 10016.759090209 459794.93111821
51	1125245 21473 0 200169 0 9990.631571462508 498 0.036222724971716 143.27390521439 10011.799623606 402223.87001773
52	1146718 21611 0 199823 0 9975.587741925465 502 0.04869402136109 122.01280899363 10009.266639516 408601.01831785
53	1168329 21452 0 199709 0 9970.484160650742 497 0.080626285491245 160.93562251668 10002.311171016 422746.16310107
54	1189781 21835 0 200277 0 9995.489609588227 506 0.047139126932377 224.92457505296 10005.970052203 414427.67359795
55	1211616 24053 0 200353 0 9998.447759961559 558 0.0021999375062215 138.60125106334 10011.831602105 368504.94973459
56	1235669 21000 0 199745 0 9972.216818747145 487 0.0081801516821684 144.98616803758 10003.117438092 408450.85857954
57	1256669 21019 0 200205 0 9992.422868051956 488 0.0010222690663683 119.90241825461 10079.829079001 440393.69318201
58	1277688 21605 0 200369 0 9999.998001831933 501 0.019523854290852 126.17855588402 10022.638935036 398566.64425437
59	1299293 22528 0 199757 0 9973.290129721254 522 0.056624335893405 109.47376666667 10068.095580492 383147.97387619
60	1321821 20768 0 199875 0 9977.961046421249 482 0.014453098227019 120.90946745279 10006.638066599 407347.72914316
61	1342589 21222 0 200317 0 9997.527910996835 493 0.0037101511699229 112.38274225869 10014.453230385 380243.45014238
62	1363811 21035 0 199521 0 9960.94882014765 488 0.0051513428502862 121.73554024761 10000.527380038 407346.56837696
63	1384846 21418 0 197837 0 9877.549851297751 498 0.024933364210235 129.67793855546 10007.227789853 406370.65322201
64	1406264 20351 0 200285 0 9995.64764589253 471 0.06050078910683 120.80379877918 10016.270235683 415632.45188372
65	1426615 22261 0 200249 0 9994.066548729901 516 0.031937249492462 115.00294453315 10024.370811718 405129.69837867
66	1448876 21201 0 198397 0 9904.144504242777 491 0.041722423126646 120.3478120281 10015.11370681 434674.32286574
67	1470077 22590 0 199681 0 9969.516698955449 524 0.038176349183058 125.47345739229 10011.486862683 383249.86624326